 Gaussian 16, Revision A.03,
 Gaussian 16:  ES64L-G16RevA.03 25-Dec-2016

 -------------------------------------------
 # M062X/6-311G** force nosymm int=ultrafine
 -------------------------------------------

 -----
 Title
 -----
 Symbolic Z-matrix:
 Charge = -1 Multiplicity = 1

                          Input orientation:
 ---------------------------------------------------------------------
 Center     Atomic      Atomic             Coordinates (Angstroms)
 Number     Number       Type             X           Y           Z
 ---------------------------------------------------------------------
      1          6           0        1.109360    0.000140    0.001150
      2          1           0        0.894770   -0.857440    0.615370
      3          1           0        0.894760    0.960730    0.436970
      4          1           0        0.894040   -0.102710   -1.048470
      5         17           0        3.156460   -0.000040   -0.000200
      6         35           0       -1.601590   -0.000010   -0.000130
 ---------------------------------------------------------------------

 SCF Done:  E(RM062X) =  -3074.34669549     A.U. after   14 cycles

 Alpha  occ. eigenvalues -- -485.05996-102.49455 -63.05238 -56.87835 -56.87806
 Alpha  occ. eigenvalues --  -56.87806 -10.45397  -9.63556  -8.73853  -7.35943
 Alpha  occ. eigenvalues --   -7.35476  -7.35476  -6.56073  -6.55939  -6.55939
 Alpha  occ. eigenvalues --   -2.59253  -2.59210  -2.59210  -2.59097  -2.59097
 Alpha  occ. eigenvalues --   -0.75249  -0.63372  -0.56961  -0.36726  -0.36723
 Alpha  occ. eigenvalues --   -0.27718  -0.21188  -0.21187  -0.11041  -0.11040
 Alpha  occ. eigenvalues --   -0.10759
 Alpha virt. eigenvalues --    0.17353   0.22990   0.28862   0.28867   0.43915
 Alpha virt. eigenvalues --    0.46801   0.46803   0.48772   0.48772   0.50931
 Alpha virt. eigenvalues --    0.55313   0.55318   0.66122   0.69883   0.73702

 Mulliken charges:
               1
     1  C   -0.347181
     2  H    0.196994
     3  H    0.196988
     4  H    0.197126
     5  Cl  -0.409405
     6  Br  -0.834521
 Sum of Mulliken charges =  -1.00000

 Dipole moment (field-independent basis, Debye):
    X=              0.8537    Y=              0.0005    Z=              0.0026  Tot=              0.8537
 Quadrupole moment (field-independent basis, Debye-Ang):
   XX=            -76.7613   YY=            -43.1737   ZZ=            -43.1727
   XY=              0.0001   XZ=              0.0018   YZ=             -0.0004

 Normal termination of Gaussian 16 at Tue Jan 22 16:54:38 2019.
