 Gaussian 16, Revision A.03,
 Gaussian 16:  ES64L-G16RevA.03 25-Dec-2016

 -------------------------------------------
 # M062X/6-311G** force nosymm int=ultrafine
 -------------------------------------------

 -----
 Title
 -----
 Symbolic Z-matrix:
 Charge = -1 Multiplicity = 1

                          Input orientation:
 ---------------------------------------------------------------------
 Center     Atomic      Atomic             Coordinates (Angstroms)
 Number     Number       Type             X           Y           Z
 ---------------------------------------------------------------------
      1          6           0        1.432020    0.003360    0.003570
      2          1           0        1.097590   -0.828440    0.606390
      3          1           0        1.090940    0.942810    0.425210
      4          1           0        1.093900   -0.099780   -1.017950
      5         17           0        3.262370   -0.000590   -0.000300
      6         35           0       -1.705230   -0.000440   -0.000580
 ---------------------------------------------------------------------

 SCF Done:  E(RM062X) =  -3074.35841855     A.U. after   13 cycles

 Alpha  occ. eigenvalues -- -485.03852-102.53225 -63.03065 -56.85652 -56.85647
 Alpha  occ. eigenvalues --  -56.85647 -10.44737  -9.67432  -8.71652  -7.39888
 Alpha  occ. eigenvalues --   -7.39315  -7.39315  -6.53806  -6.53775  -6.53774
 Alpha  occ. eigenvalues --   -2.56993  -2.56983  -2.56983  -2.56957  -2.56957
 Alpha  occ. eigenvalues --   -0.81113  -0.62680  -0.55156  -0.37268  -0.37142
 Alpha  occ. eigenvalues --   -0.33153  -0.23525  -0.23512  -0.09096  -0.09045
 Alpha  occ. eigenvalues --   -0.09044
 Alpha virt. eigenvalues --    0.20066   0.23490   0.28266   0.28308   0.42817
 Alpha virt. eigenvalues --    0.46106   0.46160   0.46824   0.46830   0.54189
 Alpha virt. eigenvalues --    0.56619   0.56630   0.58761   0.71395   0.74738

 Mulliken charges:
               1
     1  C   -0.393218
     2  H    0.188715
     3  H    0.188285
     4  H    0.188971
     5  Cl  -0.245529
     6  Br  -0.927225
 Sum of Mulliken charges =  -1.00000

 Dipole moment (field-independent basis, Debye):
    X=              3.8295    Y=              0.0061    Z=              0.0070  Tot=              3.8295
 Quadrupole moment (field-independent basis, Debye-Ang):
   XX=            -72.5902   YY=            -43.1960   ZZ=            -43.1907
   XY=             -0.0105   XZ=             -0.0023   YZ=             -0.0034

 Normal termination of Gaussian 16 at Tue Jan 22 16:57:19 2019.
