 Gaussian 16, Revision A.03,
 Gaussian 16:  ES64L-G16RevA.03 25-Dec-2016

 -------------------------------------------
 # M062X/6-311G** force nosymm int=ultrafine
 -------------------------------------------

 -----
 Title
 -----
 Symbolic Z-matrix:
 Charge = -1 Multiplicity = 1

                          Input orientation:
 ---------------------------------------------------------------------
 Center     Atomic      Atomic             Coordinates (Angstroms)
 Number     Number       Type             X           Y           Z
 ---------------------------------------------------------------------
      1          6           0        0.569530    0.000380    0.001170
      2          1           0        0.817790   -0.851940    0.611880
      3          1           0        0.817660    0.955350    0.434230
      4          1           0        0.818770   -0.102040   -1.042080
      5         17           0        3.252690   -0.000090   -0.000290
      6         35           0       -1.559210   -0.000030   -0.000100
 ---------------------------------------------------------------------

 SCF Done:  E(RM062X) =  -3074.34652354     A.U. after   14 cycles

 Alpha  occ. eigenvalues -- -485.16799-102.37659 -63.16009 -56.98713 -56.98521
 Alpha  occ. eigenvalues --  -56.98521 -10.44834  -9.51860  -8.84665  -7.23997
 Alpha  occ. eigenvalues --   -7.23934  -7.23934  -6.67279  -6.66529  -6.66529
 Alpha  occ. eigenvalues --   -2.70429  -2.70181  -2.70181  -2.69516  -2.69515
 Alpha  occ. eigenvalues --   -0.72291  -0.62765  -0.59427  -0.36213  -0.36211
 Alpha  occ. eigenvalues --   -0.26803  -0.19440  -0.19439  -0.11856  -0.11856
 Alpha  occ. eigenvalues --   -0.11452
 Alpha virt. eigenvalues --    0.16219   0.23448   0.29048   0.29055   0.44488
 Alpha virt. eigenvalues --    0.46141   0.46144   0.48239   0.48241   0.52523
 Alpha virt. eigenvalues --    0.55860   0.55866   0.59807   0.68571   0.76535

 Mulliken charges:
               1
     1  C   -0.365616
     2  H    0.198152
     3  H    0.198110
     4  H    0.198299
     5  Cl  -0.870554
     6  Br  -0.358392
 Sum of Mulliken charges =  -1.00000

 Dipole moment (field-independent basis, Debye):
    X=             -9.5425    Y=              0.0010    Z=              0.0028  Tot=              9.5425
 Quadrupole moment (field-independent basis, Debye-Ang):
   XX=            -93.6058   YY=            -43.0532   ZZ=            -43.0525
   XY=              0.0016   XZ=              0.0046   YZ=             -0.0004

 Normal termination of Gaussian 16 at Tue Jan 22 16:50:43 2019.
