 Gaussian 16, Revision A.03,
 Gaussian 16:  ES64L-G16RevA.03 25-Dec-2016

 -------------------------------------------
 # M062X/6-311G** force nosymm int=ultrafine
 -------------------------------------------

 -----
 Title
 -----
 Symbolic Z-matrix:
 Charge = -1 Multiplicity = 1

                          Input orientation:
 ---------------------------------------------------------------------
 Center     Atomic      Atomic             Coordinates (Angstroms)
 Number     Number       Type             X           Y           Z
 ---------------------------------------------------------------------
      1          6           0        1.236290    0.000140    0.001120
      2          1           0        0.939110   -0.843320    0.605180
      3          1           0        0.939170    0.944830    0.429960
      4          1           0        0.937920   -0.100800   -1.031030
      5         17           0        3.136100   -0.000040   -0.000190
      6         35           0       -1.613560   -0.000010   -0.000140
 ---------------------------------------------------------------------

 SCF Done:  E(RM062X) =  -3074.35371724     A.U. after   14 cycles

 Alpha  occ. eigenvalues -- -485.04484-102.51578 -63.03721 -56.86306 -56.86299
 Alpha  occ. eigenvalues --  -56.86299 -10.44408  -9.65748  -8.72329  -7.38177
 Alpha  occ. eigenvalues --   -7.37644  -7.37644  -6.54496  -6.54444  -6.54444
 Alpha  occ. eigenvalues --   -2.57681  -2.57665  -2.57664  -2.57624  -2.57624
 Alpha  occ. eigenvalues --   -0.78649  -0.62569  -0.55760  -0.36503  -0.36500
 Alpha  occ. eigenvalues --   -0.30917  -0.22505  -0.22504  -0.09747  -0.09746
 Alpha  occ. eigenvalues --   -0.09569
 Alpha virt. eigenvalues --    0.19813   0.23509   0.28899   0.28905   0.43458
 Alpha virt. eigenvalues --    0.46772   0.46775   0.47755   0.47756   0.52453
 Alpha virt. eigenvalues --    0.56218   0.56223   0.63595   0.71655   0.73553

 Mulliken charges:
               1
     1  C   -0.374457
     2  H    0.191284
     3  H    0.191269
     4  H    0.191427
     5  Cl  -0.306464
     6  Br  -0.893059
 Sum of Mulliken charges =  -1.00000

 Dipole moment (field-independent basis, Debye):
    X=              2.6091    Y=              0.0005    Z=              0.0025  Tot=              2.6091
 Quadrupole moment (field-independent basis, Debye-Ang):
   XX=            -72.9678   YY=            -43.1906   ZZ=            -43.1895
   XY=              0.0002   XZ=              0.0016   YZ=             -0.0005

 Normal termination of Gaussian 16 at Tue Jan 22 16:55:21 2019.
