 Gaussian 16, Revision A.03,
 Gaussian 16:  ES64L-G16RevA.03 25-Dec-2016

 -------------------------------------------
 # M062X/6-311G** force nosymm int=ultrafine
 -------------------------------------------

 -----
 Title
 -----
 Symbolic Z-matrix:
 Charge = -1 Multiplicity = 1

                          Input orientation:
 ---------------------------------------------------------------------
 Center     Atomic      Atomic             Coordinates (Angstroms)
 Number     Number       Type             X           Y           Z
 ---------------------------------------------------------------------
      1          6           0        1.305510    0.000220    0.001210
      2          1           0        0.975890   -0.837020    0.600730
      3          1           0        0.975990    0.937810    0.427070
      4          1           0        0.974480   -0.099740   -1.023180
      5         17           0        3.140250   -0.000060   -0.000210
      6         35           0       -1.627330   -0.000020   -0.000150
 ---------------------------------------------------------------------

 SCF Done:  E(RM062X) =  -3074.35572285     A.U. after   14 cycles

 Alpha  occ. eigenvalues -- -485.04012-102.52339 -63.03243 -56.85825 -56.85823
 Alpha  occ. eigenvalues --  -56.85823 -10.43982  -9.66565  -8.71845  -7.39009
 Alpha  occ. eigenvalues --   -7.38453  -7.38453  -6.53998  -6.53968  -6.53968
 Alpha  occ. eigenvalues --   -2.57185  -2.57175  -2.57175  -2.57153  -2.57153
 Alpha  occ. eigenvalues --   -0.80294  -0.62217  -0.55347  -0.36603  -0.36600
 Alpha  occ. eigenvalues --   -0.32364  -0.22834  -0.22833  -0.09305  -0.09304
 Alpha  occ. eigenvalues --   -0.09184
 Alpha virt. eigenvalues --    0.20968   0.23742   0.28798   0.28805   0.43582
 Alpha virt. eigenvalues --    0.46699   0.46701   0.47409   0.47410   0.53094
 Alpha virt. eigenvalues --    0.56539   0.56545   0.61691   0.72304   0.73957

 Mulliken charges:
               1
     1  C   -0.393167
     2  H    0.189100
     3  H    0.189078
     4  H    0.189263
     5  Cl  -0.263244
     6  Br  -0.911030
 Sum of Mulliken charges =  -1.00000

 Dipole moment (field-independent basis, Debye):
    X=              3.2537    Y=              0.0007    Z=              0.0026  Tot=              3.2537
 Quadrupole moment (field-independent basis, Debye-Ang):
   XX=            -71.6591   YY=            -43.1819   ZZ=            -43.1806
   XY=              0.0002   XZ=              0.0017   YZ=             -0.0006

 Normal termination of Gaussian 16 at Tue Jan 22 16:55:45 2019.
