 Gaussian 16, Revision A.03,
 Gaussian 16:  ES64L-G16RevA.03 25-Dec-2016

 -------------------------------------------
 # M062X/6-311G** force nosymm int=ultrafine
 -------------------------------------------

 -----
 Title
 -----
 Symbolic Z-matrix:
 Charge = -1 Multiplicity = 1

                          Input orientation:
 ---------------------------------------------------------------------
 Center     Atomic      Atomic             Coordinates (Angstroms)
 Number     Number       Type             X           Y           Z
 ---------------------------------------------------------------------
      1          6           0        0.877300    0.000090    0.001390
      2          1           0        0.868200   -0.872990    0.625740
      3          1           0        0.868200    0.977340    0.445290
      4          1           0        0.867880   -0.104110   -1.066790
      5         17           0        3.196670   -0.000020   -0.000320
      6         35           0       -1.583110   -0.000010   -0.000130
 ---------------------------------------------------------------------

 SCF Done:  E(RM062X) =  -3074.33757021     A.U. after   14 cycles

 Alpha  occ. eigenvalues -- -485.10577-102.43913 -63.09802 -56.92447 -56.92344
 Alpha  occ. eigenvalues --  -56.92344 -10.46002  -9.58040  -8.78426  -7.30313
 Alpha  occ. eigenvalues --   -7.30026  -7.30026  -6.60817  -6.60411  -6.60411
 Alpha  occ. eigenvalues --   -2.63980  -2.63851  -2.63851  -2.63494  -2.63494
 Alpha  occ. eigenvalues --   -0.69942  -0.64704  -0.59480  -0.37039  -0.37038
 Alpha  occ. eigenvalues --   -0.23348  -0.17008  -0.17007  -0.14644  -0.14643
 Alpha  occ. eigenvalues --   -0.13203
 Alpha virt. eigenvalues --    0.15145   0.22489   0.28804   0.28810   0.46747
 Alpha virt. eigenvalues --    0.47116   0.47119   0.47795   0.50410   0.50411
 Alpha virt. eigenvalues --    0.53730   0.53734   0.65389   0.66837   0.76753

 Mulliken charges:
               1
     1  C   -0.351036
     2  H    0.205069
     3  H    0.205074
     4  H    0.205224
     5  Cl  -0.627641
     6  Br  -0.636690
 Sum of Mulliken charges =  -1.00000

 Dipole moment (field-independent basis, Debye):
    X=             -3.7661    Y=              0.0003    Z=              0.0033  Tot=              3.7661
 Quadrupole moment (field-independent basis, Debye-Ang):
   XX=            -84.9297   YY=            -43.0678   ZZ=            -43.0675
   XY=              0.0001   XZ=              0.0045   YZ=             -0.0002

 Normal termination of Gaussian 16 at Tue Jan 22 16:53:20 2019.
