 Gaussian 16, Revision A.03,
 Gaussian 16:  ES64L-G16RevA.03 25-Dec-2016

 -------------------------------------------
 # M062X/6-311G** force nosymm int=ultrafine
 -------------------------------------------

 -----
 Title
 -----
 Symbolic Z-matrix:
 Charge = -1 Multiplicity = 1

                          Input orientation:
 ---------------------------------------------------------------------
 Center     Atomic      Atomic             Coordinates (Angstroms)
 Number     Number       Type             X           Y           Z
 ---------------------------------------------------------------------
      1          6           0        1.134870    0.000140    0.001140
      2          1           0        0.901480   -0.854640    0.613370
      3          1           0        0.901460    0.957600    0.435560
      4          1           0        0.900610   -0.102360   -1.045030
      5         17           0        3.151910   -0.000040   -0.000200
      6         35           0       -1.603710   -0.000010   -0.000140
 ---------------------------------------------------------------------

 SCF Done:  E(RM062X) =  -3074.34826621     A.U. after   14 cycles

 Alpha  occ. eigenvalues -- -485.05627-102.49959 -63.04868 -56.87462 -56.87439
 Alpha  occ. eigenvalues --  -56.87439 -10.45222  -9.64067  -8.73483  -7.36464
 Alpha  occ. eigenvalues --   -7.35982  -7.35982  -6.55689  -6.55576  -6.55575
 Alpha  occ. eigenvalues --   -2.58870  -2.58834  -2.58834  -2.58739  -2.58739
 Alpha  occ. eigenvalues --   -0.75929  -0.63214  -0.56683  -0.36651  -0.36649
 Alpha  occ. eigenvalues --   -0.28375  -0.21534  -0.21533  -0.10734  -0.10733
 Alpha  occ. eigenvalues --   -0.10478
 Alpha virt. eigenvalues --    0.17790   0.23094   0.28881   0.28887   0.43735
 Alpha virt. eigenvalues --    0.46774   0.46777   0.48548   0.48548   0.51271
 Alpha virt. eigenvalues --    0.55519   0.55524   0.65833   0.70227   0.73510

 Mulliken charges:
               1
     1  C   -0.350635
     2  H    0.195693
     3  H    0.195685
     4  H    0.195825
     5  Cl  -0.387165
     6  Br  -0.849403
 Sum of Mulliken charges =  -1.00000

 Dipole moment (field-independent basis, Debye):
    X=              1.2632    Y=              0.0005    Z=              0.0026  Tot=              1.2632
 Quadrupole moment (field-independent basis, Debye-Ang):
   XX=            -75.9166   YY=            -43.1824   ZZ=            -43.1813
   XY=              0.0001   XZ=              0.0018   YZ=             -0.0004

 Normal termination of Gaussian 16 at Tue Jan 22 16:54:47 2019.
