 Gaussian 16, Revision A.03,
 Gaussian 16:  ES64L-G16RevA.03 25-Dec-2016

 -------------------------------------------
 # M062X/6-311G** force nosymm int=ultrafine
 -------------------------------------------

 -----
 Title
 -----
 Symbolic Z-matrix:
 Charge = -1 Multiplicity = 1

                          Input orientation:
 ---------------------------------------------------------------------
 Center     Atomic      Atomic             Coordinates (Angstroms)
 Number     Number       Type             X           Y           Z
 ---------------------------------------------------------------------
      1          6           0        1.381460    0.000920    0.001500
      2          1           0        1.053020   -0.834290    0.599310
      3          1           0        1.048980    0.938130    0.425180
      4          1           0        1.039660   -0.099070   -1.023370
      5         17           0        3.209610   -0.000200    0.000040
      6         35           0       -1.672360   -0.000110   -0.000260
 ---------------------------------------------------------------------

 SCF Done:  E(RM062X) =  -3074.35769193     A.U. after   13 cycles

 Alpha  occ. eigenvalues -- -485.03897-102.52882 -63.03116 -56.85702 -56.85698
 Alpha  occ. eigenvalues --  -56.85698 -10.44389  -9.67103  -8.71709  -7.39554
 Alpha  occ. eigenvalues --   -7.38987  -7.38987  -6.53861  -6.53832  -6.53832
 Alpha  occ. eigenvalues --   -2.57048  -2.57039  -2.57039  -2.57015  -2.57015
 Alpha  occ. eigenvalues --   -0.80876  -0.62442  -0.55223  -0.37075  -0.36901
 Alpha  occ. eigenvalues --   -0.32880  -0.23247  -0.23226  -0.09130  -0.09129
 Alpha  occ. eigenvalues --   -0.09123
 Alpha virt. eigenvalues --    0.20530   0.23613   0.28481   0.28511   0.43154
 Alpha virt. eigenvalues --    0.46341   0.46410   0.47057   0.47062   0.53755
 Alpha virt. eigenvalues --    0.56604   0.56617   0.59883   0.71818   0.74388

 Mulliken charges:
               1
     1  C   -0.393258
     2  H    0.188597
     3  H    0.188440
     4  H    0.188614
     5  Cl  -0.250769
     6  Br  -0.921623
 Sum of Mulliken charges =  -1.00000

 Dipole moment (field-independent basis, Debye):
    X=              3.6182    Y=              0.0019    Z=              0.0035  Tot=              3.6182
 Quadrupole moment (field-independent basis, Debye-Ang):
   XX=            -72.1028   YY=            -43.1827   ZZ=            -43.1878
   XY=             -0.0041   XZ=              0.0156   YZ=             -0.0028

 Normal termination of Gaussian 16 at Tue Jan 22 16:56:40 2019.
