 Gaussian 16, Revision A.03,
 Gaussian 16:  ES64L-G16RevA.03 25-Dec-2016

 -------------------------------------------
 # M062X/6-311G** force nosymm int=ultrafine
 -------------------------------------------

 -----
 Title
 -----
 Symbolic Z-matrix:
 Charge = -1 Multiplicity = 1

                          Input orientation:
 ---------------------------------------------------------------------
 Center     Atomic      Atomic             Coordinates (Angstroms)
 Number     Number       Type             X           Y           Z
 ---------------------------------------------------------------------
      1          6           0        1.462590    0.006130    0.005680
      2          1           0        1.121910   -0.822770    0.613150
      3          1           0        1.128660    0.947550    0.422690
      4          1           0        1.118960   -0.102430   -1.015020
      5         17           0        3.292320   -0.000900   -0.000540
      6         35           0       -1.724260   -0.000820   -0.000890
 ---------------------------------------------------------------------

 SCF Done:  E(RM062X) =  -3074.35863524     A.U. after   13 cycles

 Alpha  occ. eigenvalues -- -485.03812-102.53418 -63.03021 -56.85609 -56.85603
 Alpha  occ. eigenvalues --  -56.85603 -10.44929  -9.67622  -8.71606  -7.40080
 Alpha  occ. eigenvalues --   -7.39503  -7.39503  -6.53760  -6.53728  -6.53728
 Alpha  occ. eigenvalues --   -2.56948  -2.56937  -2.56937  -2.56909  -2.56909
 Alpha  occ. eigenvalues --   -0.81289  -0.62809  -0.55103  -0.37355  -0.37343
 Alpha  occ. eigenvalues --   -0.33331  -0.23676  -0.23673  -0.09062  -0.08986
 Alpha  occ. eigenvalues --   -0.08985
 Alpha virt. eigenvalues --    0.19851   0.23407   0.28137   0.28173   0.42632
 Alpha virt. eigenvalues --    0.45997   0.46003   0.46684   0.46689   0.54414
 Alpha virt. eigenvalues --    0.56627   0.56648   0.58153   0.71131   0.74961

 Mulliken charges:
               1
     1  C   -0.393956
     2  H    0.188935
     3  H    0.188210
     4  H    0.189307
     5  Cl  -0.241913
     6  Br  -0.930583
 Sum of Mulliken charges =  -1.00000

 Dipole moment (field-independent basis, Debye):
    X=              3.9634    Y=              0.0121    Z=              0.0114  Tot=              3.9634
 Quadrupole moment (field-independent basis, Debye-Ang):
   XX=            -72.8672   YY=            -43.1945   ZZ=            -43.1924
   XY=              0.0073   XZ=              0.0039   YZ=             -0.0009

 Normal termination of Gaussian 16 at Tue Jan 22 16:57:42 2019.
