 Gaussian 16, Revision A.03,
 Gaussian 16:  ES64L-G16RevA.03 25-Dec-2016

 -------------------------------------------
 # M062X/6-311G** force nosymm int=ultrafine
 -------------------------------------------

 -----
 Title
 -----
 Symbolic Z-matrix:
 Charge = -1 Multiplicity = 1

                          Input orientation:
 ---------------------------------------------------------------------
 Center     Atomic      Atomic             Coordinates (Angstroms)
 Number     Number       Type             X           Y           Z
 ---------------------------------------------------------------------
      1          6           0        1.338730    0.000410    0.001470
      2          1           0        1.007240   -0.836220    0.600580
      3          1           0        1.007520    0.937430    0.427070
      4          1           0        1.005700   -0.099460   -1.022230
      5         17           0        3.168120   -0.000090   -0.000250
      6         35           0       -1.645930   -0.000050   -0.000180
 ---------------------------------------------------------------------

 SCF Done:  E(RM062X) =  -3074.35671468     A.U. after   13 cycles

 Alpha  occ. eigenvalues -- -485.03947-102.52584 -63.03173 -56.85756 -56.85754
 Alpha  occ. eigenvalues --  -56.85754 -10.44128  -9.66811  -8.71770  -7.39258
 Alpha  occ. eigenvalues --   -7.38697  -7.38697  -6.53922  -6.53894  -6.53894
 Alpha  occ. eigenvalues --   -2.57110  -2.57100  -2.57100  -2.57078  -2.57078
 Alpha  occ. eigenvalues --   -0.80603  -0.62288  -0.55284  -0.36784  -0.36780
 Alpha  occ. eigenvalues --   -0.32620  -0.23006  -0.23005  -0.09216  -0.09215
 Alpha  occ. eigenvalues --   -0.09148
 Alpha virt. eigenvalues --    0.20841   0.23699   0.28668   0.28676   0.43418
 Alpha virt. eigenvalues --    0.46567   0.46569   0.47256   0.47257   0.53381
 Alpha virt. eigenvalues --    0.56580   0.56587   0.60886   0.72138   0.74128

 Mulliken charges:
               1
     1  C   -0.393545
     2  H    0.188725
     3  H    0.188679
     4  H    0.188903
     5  Cl  -0.256614
     6  Br  -0.916148
 Sum of Mulliken charges =  -1.00000

 Dipole moment (field-independent basis, Debye):
    X=              3.4257    Y=              0.0011    Z=              0.0031  Tot=              3.4257
 Quadrupole moment (field-independent basis, Debye-Ang):
   XX=            -71.7854   YY=            -43.1816   ZZ=            -43.1803
   XY=              0.0004   XZ=              0.0018   YZ=             -0.0006

 Normal termination of Gaussian 16 at Tue Jan 22 16:56:08 2019.
