 Gaussian 16, Revision A.03,
 Gaussian 16:  ES64L-G16RevA.03 25-Dec-2016

 -------------------------------------------
 # M062X/6-311G** force nosymm int=ultrafine
 -------------------------------------------

 -----
 Title
 -----
 Symbolic Z-matrix:
 Charge = -1 Multiplicity = 1

                          Input orientation:
 ---------------------------------------------------------------------
 Center     Atomic      Atomic             Coordinates (Angstroms)
 Number     Number       Type             X           Y           Z
 ---------------------------------------------------------------------
      1          6           0        0.980750    0.000160    0.001230
      2          1           0        0.875510   -0.869070    0.623610
      3          1           0        0.875370    0.973710    0.442910
      4          1           0        0.875120   -0.104140   -1.062640
      5         17           0        3.179020   -0.000040   -0.000240
      6         35           0       -1.591290   -0.000020   -0.000130
 ---------------------------------------------------------------------

 SCF Done:  E(RM062X) =  -3074.33994531     A.U. after   14 cycles

 Alpha  occ. eigenvalues -- -485.08354-102.46474 -63.07588 -56.90209 -56.90143
 Alpha  occ. eigenvalues --  -56.90143 -10.45942  -9.60578  -8.76209  -7.32904
 Alpha  occ. eigenvalues --   -7.32531  -7.32531  -6.58517  -6.58242  -6.58242
 Alpha  occ. eigenvalues --   -2.61687  -2.61601  -2.61601  -2.61362  -2.61362
 Alpha  occ. eigenvalues --   -0.71980  -0.64133  -0.58487  -0.37015  -0.37014
 Alpha  occ. eigenvalues --   -0.24733  -0.18977  -0.18977  -0.12930  -0.12929
 Alpha  occ. eigenvalues --   -0.12311
 Alpha virt. eigenvalues --    0.15759   0.22574   0.28787   0.28792   0.45339
 Alpha virt. eigenvalues --    0.47058   0.47059   0.49090   0.49897   0.49897
 Alpha virt. eigenvalues --    0.54224   0.54227   0.65980   0.68202   0.76062

 Mulliken charges:
               1
     1  C   -0.347109
     2  H    0.203264
     3  H    0.203260
     4  H    0.203401
     5  Cl  -0.529222
     6  Br  -0.733594
 Sum of Mulliken charges =  -1.00000

 Dipole moment (field-independent basis, Debye):
    X=             -1.5909    Y=              0.0005    Z=              0.0028  Tot=              1.5909
 Quadrupole moment (field-independent basis, Debye-Ang):
   XX=            -81.2961   YY=            -43.1096   ZZ=            -43.1088
   XY=             -0.0000   XZ=              0.0026   YZ=             -0.0002

 Normal termination of Gaussian 16 at Tue Jan 22 16:53:55 2019.
