 Gaussian 16, Revision A.03,
 Gaussian 16:  ES64L-G16RevA.03 25-Dec-2016

 -------------------------------------------
 # M062X/6-311G** force nosymm int=ultrafine
 -------------------------------------------

 -----
 Title
 -----
 Symbolic Z-matrix:
 Charge = -1 Multiplicity = 1

                          Input orientation:
 ---------------------------------------------------------------------
 Center     Atomic      Atomic             Coordinates (Angstroms)
 Number     Number       Type             X           Y           Z
 ---------------------------------------------------------------------
      1          6           0        1.032360    0.000150    0.001190
      2          1           0        0.880760   -0.865100    0.620780
      3          1           0        0.880750    0.969290    0.440860
      4          1           0        0.880410   -0.103650   -1.057820
      5         17           0        3.170090   -0.000040   -0.000230
      6         35           0       -1.595390   -0.000010   -0.000130
 ---------------------------------------------------------------------

 SCF Done:  E(RM062X) =  -3074.34226969     A.U. after   14 cycles

 Alpha  occ. eigenvalues -- -485.07319-102.47734 -63.06558 -56.89168 -56.89119
 Alpha  occ. eigenvalues --  -56.89119 -10.45796  -9.61831  -8.75177  -7.34183
 Alpha  occ. eigenvalues --   -7.33770  -7.33770  -6.57446  -6.57234  -6.57233
 Alpha  occ. eigenvalues --   -2.60620  -2.60553  -2.60553  -2.60371  -2.60371
 Alpha  occ. eigenvalues --   -0.73243  -0.63832  -0.57873  -0.36936  -0.36934
 Alpha  occ. eigenvalues --   -0.25825  -0.19935  -0.19935  -0.12113  -0.12112
 Alpha  occ. eigenvalues --   -0.11687
 Alpha virt. eigenvalues --    0.16276   0.22709   0.28805   0.28810   0.44680
 Alpha virt. eigenvalues --    0.46946   0.46947   0.49463   0.49464   0.49838
 Alpha virt. eigenvalues --    0.54651   0.54655   0.66244   0.68892   0.74899

 Mulliken charges:
               1
     1  C   -0.344583
     2  H    0.201110
     3  H    0.201104
     4  H    0.201242
     5  Cl  -0.480116
     6  Br  -0.778758
 Sum of Mulliken charges =  -1.00000

 Dipole moment (field-independent basis, Debye):
    X=             -0.5463    Y=              0.0005    Z=              0.0027  Tot=              0.5463
 Quadrupole moment (field-independent basis, Debye-Ang):
   XX=            -79.4516   YY=            -43.1368   ZZ=            -43.1360
   XY=              0.0002   XZ=              0.0020   YZ=             -0.0003

 Normal termination of Gaussian 16 at Tue Jan 22 16:54:12 2019.
