 Gaussian 16, Revision A.03,
 Gaussian 16:  ES64L-G16RevA.03 25-Dec-2016

 -------------------------------------------
 # M062X/6-311G** force nosymm int=ultrafine
 -------------------------------------------

 -----
 Title
 -----
 Symbolic Z-matrix:
 Charge = -1 Multiplicity = 1

                          Input orientation:
 ---------------------------------------------------------------------
 Center     Atomic      Atomic             Coordinates (Angstroms)
 Number     Number       Type             X           Y           Z
 ---------------------------------------------------------------------
      1          6           0        1.185720    0.000130    0.001130
      2          1           0        0.918040   -0.848960    0.609270
      3          1           0        0.918040    0.951190    0.432730
      4          1           0        0.916980   -0.101620   -1.038000
      5         17           0        3.143240   -0.000040   -0.000190
      6         35           0       -1.608230   -0.000010   -0.000140
 ---------------------------------------------------------------------

 SCF Done:  E(RM062X) =  -3074.35126357     A.U. after   14 cycles

 Alpha  occ. eigenvalues -- -485.04991-102.50852 -63.04231 -56.86819 -56.86805
 Alpha  occ. eigenvalues --  -56.86805 -10.44829  -9.64984  -8.72842  -7.37398
 Alpha  occ. eigenvalues --   -7.36888  -7.36888  -6.55026  -6.54948  -6.54948
 Alpha  occ. eigenvalues --   -2.58210  -2.58185  -2.58184  -2.58121  -2.58121
 Alpha  occ. eigenvalues --   -0.77293  -0.62890  -0.56181  -0.36534  -0.36531
 Alpha  occ. eigenvalues --   -0.29675  -0.22105  -0.22104  -0.10193  -0.10192
 Alpha  occ. eigenvalues --   -0.09979
 Alpha virt. eigenvalues --    0.18762   0.23303   0.28906   0.28912   0.43505
 Alpha virt. eigenvalues --    0.46756   0.46759   0.48125   0.48126   0.51900
 Alpha virt. eigenvalues --    0.55896   0.55901   0.64881   0.70943   0.73404

 Mulliken charges:
               1
     1  C   -0.361039
     2  H    0.193350
     3  H    0.193340
     4  H    0.193487
     5  Cl  -0.344992
     6  Br  -0.874147
 Sum of Mulliken charges =  -1.00000

 Dipole moment (field-independent basis, Debye):
    X=              1.9944    Y=              0.0005    Z=              0.0025  Tot=              1.9944
 Quadrupole moment (field-independent basis, Debye-Ang):
   XX=            -74.3423   YY=            -43.1920   ZZ=            -43.1910
   XY=              0.0001   XZ=              0.0017   YZ=             -0.0004

 Normal termination of Gaussian 16 at Tue Jan 22 16:55:04 2019.
