 Gaussian 16, Revision A.03,
 Gaussian 16:  ES64L-G16RevA.03 25-Dec-2016

 -------------------------------------------
 # M062X/6-311G** force nosymm int=ultrafine
 -------------------------------------------

 -----
 Title
 -----
 Symbolic Z-matrix:
 Charge = -1 Multiplicity = 1

                          Input orientation:
 ---------------------------------------------------------------------
 Center     Atomic      Atomic             Coordinates (Angstroms)
 Number     Number       Type             X           Y           Z
 ---------------------------------------------------------------------
      1          6           0        1.471770    0.006280    0.006010
      2          1           0        1.130690   -0.820220    0.615990
      3          1           0        1.138130    0.949270    0.419850
      4          1           0        1.127490   -0.105560   -1.014010
      5         17           0        3.303340   -0.000750   -0.000420
      6         35           0       -1.730880   -0.000920   -0.001010
 ---------------------------------------------------------------------

 SCF Done:  E(RM062X) =  -3074.35867652     A.U. after   13 cycles

 Alpha  occ. eigenvalues -- -485.03808-102.53476 -63.03016 -56.85605 -56.85598
 Alpha  occ. eigenvalues --  -56.85598 -10.45004  -9.67676  -8.71601  -7.40134
 Alpha  occ. eigenvalues --   -7.39557  -7.39557  -6.53755  -6.53722  -6.53722
 Alpha  occ. eigenvalues --   -2.56943  -2.56932  -2.56932  -2.56903  -2.56903
 Alpha  occ. eigenvalues --   -0.81304  -0.62876  -0.55095  -0.37400  -0.37386
 Alpha  occ. eigenvalues --   -0.33362  -0.23731  -0.23729  -0.09059  -0.08975
 Alpha  occ. eigenvalues --   -0.08974
 Alpha virt. eigenvalues --    0.19728   0.23376   0.28097   0.28138   0.42558
 Alpha virt. eigenvalues --    0.45948   0.45957   0.46641   0.46647   0.54474
 Alpha virt. eigenvalues --    0.56623   0.56645   0.57985   0.71050   0.75023

 Mulliken charges:
               1
     1  C   -0.393672
     2  H    0.189069
     3  H    0.188279
     4  H    0.189443
     5  Cl  -0.241693
     6  Br  -0.931428
 Sum of Mulliken charges =  -1.00000

 Dipole moment (field-independent basis, Debye):
    X=              3.9969    Y=              0.0126    Z=              0.0120  Tot=              3.9969
 Quadrupole moment (field-independent basis, Debye-Ang):
   XX=            -72.9999   YY=            -43.1959   ZZ=            -43.1947
   XY=              0.0072   XZ=              0.0033   YZ=             -0.0007

 Normal termination of Gaussian 16 at Tue Jan 22 16:57:49 2019.
