 Gaussian 16, Revision A.03,
 Gaussian 16:  ES64L-G16RevA.03 25-Dec-2016

 -------------------------------------------
 # M062X/6-311G** force nosymm int=ultrafine
 -------------------------------------------

 -----
 Title
 -----
 Symbolic Z-matrix:
 Charge = -1 Multiplicity = 1

                          Input orientation:
 ---------------------------------------------------------------------
 Center     Atomic      Atomic             Coordinates (Angstroms)
 Number     Number       Type             X           Y           Z
 ---------------------------------------------------------------------
      1          6           0        1.058100    0.000150    0.001180
      2          1           0        0.884480   -0.862710    0.619090
      3          1           0        0.884500    0.966630    0.439640
      4          1           0        0.884040   -0.103360   -1.054920
      5         17           0        3.165590   -0.000040   -0.000220
      6         35           0       -1.597450   -0.000010   -0.000130
 ---------------------------------------------------------------------

 SCF Done:  E(RM062X) =  -3074.34365095     A.U. after   14 cycles

 Alpha  occ. eigenvalues -- -485.06843-102.48337 -63.06084 -56.88689 -56.88647
 Alpha  occ. eigenvalues --  -56.88647 -10.45687  -9.62433  -8.74702  -7.34797
 Alpha  occ. eigenvalues --   -7.34366  -7.34365  -6.56952  -6.56769  -6.56769
 Alpha  occ. eigenvalues --   -2.60129  -2.60071  -2.60071  -2.59913  -2.59913
 Alpha  occ. eigenvalues --   -0.73902  -0.63682  -0.57561  -0.36875  -0.36873
 Alpha  occ. eigenvalues --   -0.26433  -0.20384  -0.20384  -0.11732  -0.11731
 Alpha  occ. eigenvalues --   -0.11368
 Alpha virt. eigenvalues --    0.16594   0.22795   0.28822   0.28827   0.44391
 Alpha virt. eigenvalues --    0.46889   0.46891   0.49233   0.49233   0.50212
 Alpha virt. eigenvalues --    0.54875   0.54880   0.66306   0.69222   0.74405

 Mulliken charges:
               1
     1  C   -0.344241
     2  H    0.199770
     3  H    0.199763
     4  H    0.199899
     5  Cl  -0.456003
     6  Br  -0.799189
 Sum of Mulliken charges =  -1.00000

 Dipole moment (field-independent basis, Debye):
    X=             -0.0531    Y=              0.0005    Z=              0.0027  Tot=              0.0532
 Quadrupole moment (field-independent basis, Debye-Ang):
   XX=            -78.5372   YY=            -43.1504   ZZ=            -43.1495
   XY=              0.0002   XZ=              0.0019   YZ=             -0.0003

 Normal termination of Gaussian 16 at Tue Jan 22 16:54:21 2019.
