 Gaussian 16, Revision A.03,
 Gaussian 16:  ES64L-G16RevA.03 25-Dec-2016

 -------------------------------------------
 # M062X/6-311G** force nosymm int=ultrafine
 -------------------------------------------

 -----
 Title
 -----
 Symbolic Z-matrix:
 Charge = -1 Multiplicity = 1

                          Input orientation:
 ---------------------------------------------------------------------
 Center     Atomic      Atomic             Coordinates (Angstroms)
 Number     Number       Type             X           Y           Z
 ---------------------------------------------------------------------
      1          6           0        0.748220    0.000240    0.001250
      2          1           0        0.859140   -0.868640    0.623240
      3          1           0        0.858960    0.973330    0.442820
      4          1           0        0.859300   -0.103870   -1.062150
      5         17           0        3.219780   -0.000060   -0.000280
      6         35           0       -1.573370   -0.000020   -0.000120
 ---------------------------------------------------------------------

 SCF Done:  E(RM062X) =  -3074.33904312     A.U. after   14 cycles

 Alpha  occ. eigenvalues -- -485.13424-102.40821 -63.12638 -56.95311 -56.95166
 Alpha  occ. eigenvalues --  -56.95166 -10.45795  -9.54991  -8.81269  -7.27197
 Alpha  occ. eigenvalues --   -7.27020  -7.27020  -6.63763  -6.63196  -6.63196
 Alpha  occ. eigenvalues --   -2.66917  -2.66736  -2.66735  -2.66234  -2.66234
 Alpha  occ. eigenvalues --   -0.69451  -0.64480  -0.60008  -0.36863  -0.36862
 Alpha  occ. eigenvalues --   -0.23634  -0.17000  -0.16999  -0.14425  -0.14424
 Alpha  occ. eigenvalues --   -0.13046
 Alpha virt. eigenvalues --    0.15032   0.22707   0.28875   0.28881   0.45917
 Alpha virt. eigenvalues --    0.46727   0.46728   0.49272   0.49881   0.49883
 Alpha virt. eigenvalues --    0.54309   0.54313   0.63510   0.66756   0.76586

 Mulliken charges:
               1
     1  C   -0.350450
     2  H    0.204425
     3  H    0.204402
     4  H    0.204560
     5  Cl  -0.748638
     6  Br  -0.514299
 Sum of Mulliken charges =  -1.00000

 Dipole moment (field-independent basis, Debye):
    X=             -6.4693    Y=              0.0007    Z=              0.0030  Tot=              6.4693
 Quadrupole moment (field-independent basis, Debye-Ang):
   XX=            -89.2939   YY=            -43.0510   ZZ=            -43.0503
   XY=              0.0006   XZ=              0.0044   YZ=             -0.0003

 Normal termination of Gaussian 16 at Tue Jan 22 16:49:28 2019.
