 Gaussian 16, Revision A.03,
 Gaussian 16:  ES64L-G16RevA.03 25-Dec-2016

 -------------------------------------------
 # M062X/6-311G** force nosymm int=ultrafine
 -------------------------------------------

 -----
 Title
 -----
 Symbolic Z-matrix:
 Charge = -1 Multiplicity = 1

                          Input orientation:
 ---------------------------------------------------------------------
 Center     Atomic      Atomic             Coordinates (Angstroms)
 Number     Number       Type             X           Y           Z
 ---------------------------------------------------------------------
      1          6           0        1.359770    0.000610    0.001530
      2          1           0        1.026860   -0.835380    0.600180
      3          1           0        1.026480    0.937300    0.426550
      4          1           0        1.023470   -0.099280   -1.021910
      5         17           0        3.189350   -0.000130   -0.000180
      6         35           0       -1.659260   -0.000070   -0.000220
 ---------------------------------------------------------------------

 SCF Done:  E(RM062X) =  -3074.35727147     A.U. after   13 cycles

 Alpha  occ. eigenvalues -- -485.03928-102.52740 -63.03150 -56.85735 -56.85731
 Alpha  occ. eigenvalues --  -56.85731 -10.44261  -9.66962  -8.71745  -7.39411
 Alpha  occ. eigenvalues --   -7.38847  -7.38847  -6.53897  -6.53868  -6.53868
 Alpha  occ. eigenvalues --   -2.57085  -2.57075  -2.57075  -2.57052  -2.57052
 Alpha  occ. eigenvalues --   -0.80721  -0.62370  -0.55260  -0.36881  -0.36849
 Alpha  occ. eigenvalues --   -0.32751  -0.23128  -0.23124  -0.09178  -0.09177
 Alpha  occ. eigenvalues --   -0.09143
 Alpha virt. eigenvalues --    0.20660   0.23664   0.28589   0.28594   0.43284
 Alpha virt. eigenvalues --    0.46458   0.46471   0.47161   0.47162   0.53562
 Alpha virt. eigenvalues --    0.56591   0.56599   0.60392   0.71995   0.74244

 Mulliken charges:
               1
     1  C   -0.393476
     2  H    0.188650
     3  H    0.188572
     4  H    0.188798
     5  Cl  -0.253768
     6  Br  -0.918776
 Sum of Mulliken charges =  -1.00000

 Dipole moment (field-independent basis, Debye):
    X=              3.5181    Y=              0.0014    Z=              0.0032  Tot=              3.5181
 Quadrupole moment (field-independent basis, Debye-Ang):
   XX=            -71.9443   YY=            -43.1863   ZZ=            -43.1862
   XY=             -0.0003   XZ=              0.0036   YZ=             -0.0010

 Normal termination of Gaussian 16 at Tue Jan 22 16:56:24 2019.
