 Gaussian 16, Revision A.03,
 Gaussian 16:  ES64L-G16RevA.03 25-Dec-2016

 -------------------------------------------
 # M062X/6-311G** force nosymm int=ultrafine
 -------------------------------------------

 -----
 Title
 -----
 Symbolic Z-matrix:
 Charge = -1 Multiplicity = 1

                          Input orientation:
 ---------------------------------------------------------------------
 Center     Atomic      Atomic             Coordinates (Angstroms)
 Number     Number       Type             X           Y           Z
 ---------------------------------------------------------------------
      1          6           0        1.443100    0.003830    0.004220
      2          1           0        1.101320   -0.829410    0.608230
      3          1           0        1.116590    0.941600    0.424220
      4          1           0        1.100320   -0.102060   -1.018070
      5         17           0        3.271660   -0.000420   -0.000340
      6         35           0       -1.711480   -0.000530   -0.000670
 ---------------------------------------------------------------------

 SCF Done:  E(RM062X) =  -3074.35849019     A.U. after   13 cycles

 Alpha  occ. eigenvalues -- -485.03829-102.53286 -63.03041 -56.85628 -56.85622
 Alpha  occ. eigenvalues --  -56.85622 -10.44791  -9.67496  -8.71627  -7.39952
 Alpha  occ. eigenvalues --   -7.39378  -7.39377  -6.53781  -6.53749  -6.53749
 Alpha  occ. eigenvalues --   -2.56968  -2.56958  -2.56958  -2.56931  -2.56931
 Alpha  occ. eigenvalues --   -0.81211  -0.62713  -0.55130  -0.37369  -0.37200
 Alpha  occ. eigenvalues --   -0.33221  -0.23577  -0.23557  -0.09075  -0.09016
 Alpha  occ. eigenvalues --   -0.09015
 Alpha virt. eigenvalues --    0.20038   0.23456   0.28225   0.28244   0.42758
 Alpha virt. eigenvalues --    0.46064   0.46133   0.46769   0.46779   0.54276
 Alpha virt. eigenvalues --    0.56625   0.56644   0.58532   0.71302   0.74825

 Mulliken charges:
               1
     1  C   -0.393388
     2  H    0.188645
     3  H    0.188317
     4  H    0.188987
     5  Cl  -0.243906
     6  Br  -0.928654
 Sum of Mulliken charges =  -1.00000

 Dipole moment (field-independent basis, Debye):
    X=              3.8834    Y=              0.0083    Z=              0.0087  Tot=              3.8834
 Quadrupole moment (field-independent basis, Debye-Ang):
   XX=            -72.6676   YY=            -43.1884   ZZ=            -43.1896
   XY=              0.0195   XZ=              0.0072   YZ=              0.0018

 Normal termination of Gaussian 16 at Tue Jan 22 16:57:27 2019.
