 Gaussian 16, Revision A.03,
 Gaussian 16:  ES64L-G16RevA.03 25-Dec-2016

 -------------------------------------------
 # M062X/6-311G** force nosymm int=ultrafine
 -------------------------------------------

 -----
 Title
 -----
 Symbolic Z-matrix:
 Charge = -1 Multiplicity = 1

                          Input orientation:
 ---------------------------------------------------------------------
 Center     Atomic      Atomic             Coordinates (Angstroms)
 Number     Number       Type             X           Y           Z
 ---------------------------------------------------------------------
      1          6           0        1.160330    0.000140    0.001130
      2          1           0        0.909230   -0.851810    0.611340
      3          1           0        0.909210    0.954410    0.434150
      4          1           0        0.908250   -0.102000   -1.041530
      5         17           0        3.147480   -0.000040   -0.000190
      6         35           0       -1.605910   -0.000010   -0.000140
 ---------------------------------------------------------------------

 SCF Done:  E(RM062X) =  -3074.34980444     A.U. after   14 cycles

 Alpha  occ. eigenvalues -- -485.05292-102.50425 -63.04533 -56.87124 -56.87106
 Alpha  occ. eigenvalues --  -56.87106 -10.45031  -9.64544  -8.73146  -7.36949
 Alpha  occ. eigenvalues --   -7.36453  -7.36453  -6.55340  -6.55246  -6.55246
 Alpha  occ. eigenvalues --   -2.58523  -2.58492  -2.58492  -2.58414  -2.58414
 Alpha  occ. eigenvalues --   -0.76611  -0.63053  -0.56422  -0.36585  -0.36582
 Alpha  occ. eigenvalues --   -0.29029  -0.21840  -0.21840  -0.10451  -0.10450
 Alpha  occ. eigenvalues --   -0.10218
 Alpha virt. eigenvalues --    0.18261   0.23199   0.28897   0.28903   0.43597
 Alpha virt. eigenvalues --    0.46759   0.46762   0.48332   0.48332   0.51595
 Alpha virt. eigenvalues --    0.55714   0.55719   0.65412   0.70581   0.73417

 Mulliken charges:
               1
     1  C   -0.355326
     2  H    0.194481
     3  H    0.194473
     4  H    0.194616
     5  Cl  -0.365672
     6  Br  -0.862571
 Sum of Mulliken charges =  -1.00000

 Dipole moment (field-independent basis, Debye):
    X=              1.6434    Y=              0.0005    Z=              0.0026  Tot=              1.6434
 Quadrupole moment (field-independent basis, Debye-Ang):
   XX=            -75.1083   YY=            -43.1886   ZZ=            -43.1875
   XY=              0.0001   XZ=              0.0017   YZ=             -0.0004

 Normal termination of Gaussian 16 at Tue Jan 22 16:54:55 2019.
