 Gaussian 16, Revision A.03,
 Gaussian 16:  ES64L-G16RevA.03 25-Dec-2016

 -------------------------------------------
 # M062X/6-311G** force nosymm int=ultrafine
 -------------------------------------------

 -----
 Title
 -----
 Symbolic Z-matrix:
 Charge = -1 Multiplicity = 1

                          Input orientation:
 ---------------------------------------------------------------------
 Center     Atomic      Atomic             Coordinates (Angstroms)
 Number     Number       Type             X           Y           Z
 ---------------------------------------------------------------------
      1          6           0        1.006570    0.000160    0.001210
      2          1           0        0.877830   -0.867240    0.622300
      3          1           0        0.877760    0.971670    0.441960
      4          1           0        0.877490   -0.103910   -1.060420
      5         17           0        3.174570   -0.000040   -0.000230
      6         35           0       -1.593340   -0.000020   -0.000130
 ---------------------------------------------------------------------

 SCF Done:  E(RM062X) =  -3074.34102537     A.U. after   14 cycles

 Alpha  occ. eigenvalues -- -485.07825-102.47111 -63.07062 -56.89677 -56.89619
 Alpha  occ. eigenvalues --  -56.89619 -10.45880  -9.61210  -8.75681  -7.33550
 Alpha  occ. eigenvalues --   -7.33156  -7.33156  -6.57969  -6.57727  -6.57727
 Alpha  occ. eigenvalues --   -2.61142  -2.61065  -2.61065  -2.60855  -2.60855
 Alpha  occ. eigenvalues --   -0.72599  -0.63982  -0.58184  -0.36983  -0.36981
 Alpha  occ. eigenvalues --   -0.25254  -0.19464  -0.19464  -0.12514  -0.12513
 Alpha  occ. eigenvalues --   -0.12005
 Alpha virt. eigenvalues --    0.15998   0.22634   0.28794   0.28799   0.44998
 Alpha virt. eigenvalues --    0.47004   0.47005   0.49463   0.49687   0.49688
 Alpha virt. eigenvalues --    0.54431   0.54435   0.66125   0.68552   0.75461

 Mulliken charges:
               1
     1  C   -0.345693
     2  H    0.202298
     3  H    0.202293
     4  H    0.202432
     5  Cl  -0.504572
     6  Br  -0.756758
 Sum of Mulliken charges =  -1.00000

 Dipole moment (field-independent basis, Debye):
    X=             -1.0608    Y=              0.0005    Z=              0.0028  Tot=              1.0608
 Quadrupole moment (field-independent basis, Debye-Ang):
   XX=            -80.3734   YY=            -43.1230   ZZ=            -43.1222
   XY=              0.0000   XZ=              0.0022   YZ=             -0.0002

 Normal termination of Gaussian 16 at Tue Jan 22 16:54:04 2019.
