 Gaussian 16, Revision A.03,
 Gaussian 16:  ES64L-G16RevA.03 25-Dec-2016

 -------------------------------------------
 # M062X/6-311G** force nosymm int=ultrafine
 -------------------------------------------

 -----
 Title
 -----
 Symbolic Z-matrix:
 Charge = -1 Multiplicity = 1

                          Input orientation:
 ---------------------------------------------------------------------
 Center     Atomic      Atomic             Coordinates (Angstroms)
 Number     Number       Type             X           Y           Z
 ---------------------------------------------------------------------
      1          6           0        0.409230    0.000860    0.001070
      2          1           0        0.731910   -0.835930    0.604510
      3          1           0        0.730530    0.942100    0.424170
      4          1           0        0.732850   -0.103110   -1.025380
      5         17           0        3.367020   -0.000190   -0.000480
      6         35           0       -1.582190   -0.000090    0.000010
 ---------------------------------------------------------------------

 SCF Done:  E(RM062X) =  -3074.35146455     A.U. after   13 cycles

 Alpha  occ. eigenvalues -- -485.18950-102.36243 -63.18175 -57.00892 -57.00678
 Alpha  occ. eigenvalues --  -57.00678 -10.44369  -9.50412  -8.86870  -7.22528
 Alpha  occ. eigenvalues --   -7.22505  -7.22505  -6.69555  -6.68701  -6.68701
 Alpha  occ. eigenvalues --   -2.72709  -2.72415  -2.72415  -2.71658  -2.71658
 Alpha  occ. eigenvalues --   -0.75443  -0.61829  -0.58822  -0.36309  -0.36292
 Alpha  occ. eigenvalues --   -0.29869  -0.20837  -0.20836  -0.10489  -0.10488
 Alpha  occ. eigenvalues --   -0.10436
 Alpha virt. eigenvalues --    0.17319   0.23851   0.28675   0.28680   0.43824
 Alpha virt. eigenvalues --    0.45683   0.45690   0.46863   0.46864   0.55836
 Alpha virt. eigenvalues --    0.56567   0.56775   0.56784   0.67641   0.76136

 Mulliken charges:
               1
     1  C   -0.397813
     2  H    0.193964
     3  H    0.193825
     4  H    0.194054
     5  Cl  -0.929181
     6  Br  -0.254848
 Sum of Mulliken charges =  -1.00000

 Dipole moment (field-independent basis, Debye):
    X=            -11.6172    Y=              0.0019    Z=              0.0031  Tot=             11.6172
 Quadrupole moment (field-independent basis, Debye-Ang):
   XX=            -98.1647   YY=            -43.0173   ZZ=            -43.0179
   XY=              0.0024   XZ=              0.0073   YZ=             -0.0002

 Normal termination of Gaussian 16 at Tue Jan 22 16:52:28 2019.
