 Gaussian 16, Revision A.03,
 Gaussian 16:  ES64L-G16RevA.03 25-Dec-2016

 -------------------------------------------
 # M062X/6-311G** force nosymm int=ultrafine
 -------------------------------------------

 -----
 Title
 -----
 Symbolic Z-matrix:
 Charge = -1 Multiplicity = 1

                          Input orientation:
 ---------------------------------------------------------------------
 Center     Atomic      Atomic             Coordinates (Angstroms)
 Number     Number       Type             X           Y           Z
 ---------------------------------------------------------------------
      1          6           0        0.774010    0.000210    0.001280
      2          1           0        0.861420   -0.870250    0.624320
      3          1           0        0.861300    0.974990    0.443700
      4          1           0        0.861590   -0.104040   -1.064010
      5         17           0        3.215170   -0.000050   -0.000290
      6         35           0       -1.575340   -0.000020   -0.000120
 ---------------------------------------------------------------------

 SCF Done:  E(RM062X) =  -3074.33837092     A.U. after   14 cycles

 Alpha  occ. eigenvalues -- -485.12860-102.41414 -63.12075 -56.94743 -56.94606
 Alpha  occ. eigenvalues --  -56.94606 -10.45867  -9.55575  -8.80705  -7.27794
 Alpha  occ. eigenvalues --   -7.27595  -7.27595  -6.63178  -6.62642  -6.62642
 Alpha  occ. eigenvalues --   -2.66334  -2.66163  -2.66163  -2.65690  -2.65690
 Alpha  occ. eigenvalues --   -0.69298  -0.64665  -0.59974  -0.36919  -0.36918
 Alpha  occ. eigenvalues --   -0.23387  -0.16596  -0.16596  -0.14862  -0.14862
 Alpha  occ. eigenvalues --   -0.13197
 Alpha virt. eigenvalues --    0.14995   0.22633   0.28854   0.28860   0.46201
 Alpha virt. eigenvalues --    0.46834   0.46835   0.48812   0.50076   0.50078
 Alpha virt. eigenvalues --    0.54106   0.54110   0.64003   0.66591   0.76619

 Mulliken charges:
               1
     1  C   -0.350967
     2  H    0.204916
     3  H    0.204900
     4  H    0.205059
     5  Cl  -0.725223
     6  Br  -0.538685
 Sum of Mulliken charges =  -1.00000

 Dipole moment (field-independent basis, Debye):
    X=             -5.9409    Y=              0.0006    Z=              0.0031  Tot=              5.9409
 Quadrupole moment (field-independent basis, Debye-Ang):
   XX=            -88.4634   YY=            -43.0514   ZZ=            -43.0506
   XY=              0.0004   XZ=              0.0043   YZ=             -0.0002

 Normal termination of Gaussian 16 at Tue Jan 22 16:49:15 2019.
