 Gaussian 16, Revision A.03,
 Gaussian 16:  ES64L-G16RevA.03 25-Dec-2016

 -------------------------------------------
 # M062X/6-311G** force nosymm int=ultrafine
 -------------------------------------------

 -----
 Title
 -----
 Symbolic Z-matrix:
 Charge = -1 Multiplicity = 1

                          Input orientation:
 ---------------------------------------------------------------------
 Center     Atomic      Atomic             Coordinates (Angstroms)
 Number     Number       Type             X           Y           Z
 ---------------------------------------------------------------------
      1          6           0        1.491750    0.008040    0.006580
      2          1           0        1.149560   -0.810240    0.627220
      3          1           0        1.158030    0.956320    0.407870
      4          1           0        1.147010   -0.117120   -1.011950
      5         17           0        3.324030   -0.000500    0.000330
      6         35           0       -1.743830   -0.001370   -0.001440
 ---------------------------------------------------------------------

 SCF Done:  E(RM062X) =  -3074.35871617     A.U. after   13 cycles

 Alpha  occ. eigenvalues -- -485.03784-102.53597 -63.02991 -56.85580 -56.85573
 Alpha  occ. eigenvalues --  -56.85573 -10.45137  -9.67793  -8.71574  -7.40253
 Alpha  occ. eigenvalues --   -7.39673  -7.39673  -6.53729  -6.53695  -6.53695
 Alpha  occ. eigenvalues --   -2.56916  -2.56905  -2.56905  -2.56876  -2.56876
 Alpha  occ. eigenvalues --   -0.81397  -0.62981  -0.55062  -0.37504  -0.37483
 Alpha  occ. eigenvalues --   -0.33462  -0.23837  -0.23833  -0.09038  -0.08940
 Alpha  occ. eigenvalues --   -0.08939
 Alpha virt. eigenvalues --    0.19560   0.23315   0.28010   0.28052   0.42428
 Alpha virt. eigenvalues --    0.45858   0.45869   0.46551   0.46556   0.54567
 Alpha virt. eigenvalues --    0.56626   0.56650   0.57662   0.70877   0.75160

 Mulliken charges:
               1
     1  C   -0.393856
     2  H    0.189288
     3  H    0.188374
     4  H    0.189617
     5  Cl  -0.239966
     6  Br  -0.933456
 Sum of Mulliken charges =  -1.00000

 Dipole moment (field-independent basis, Debye):
    X=              4.0804    Y=              0.0160    Z=              0.0133  Tot=              4.0805
 Quadrupole moment (field-independent basis, Debye-Ang):
   XX=            -73.2202   YY=            -43.1959   ZZ=            -43.1947
   XY=              0.0041   XZ=             -0.0037   YZ=             -0.0007

 Normal termination of Gaussian 16 at Tue Jan 22 16:58:05 2019.
