 Gaussian 16, Revision A.03,
 Gaussian 16:  ES64L-G16RevA.03 25-Dec-2016

 -------------------------------------------
 # M062X/6-311G** force nosymm int=ultrafine
 -------------------------------------------

 -----
 Title
 -----
 Symbolic Z-matrix:
 Charge = -1 Multiplicity = 1

                          Input orientation:
 ---------------------------------------------------------------------
 Center     Atomic      Atomic             Coordinates (Angstroms)
 Number     Number       Type             X           Y           Z
 ---------------------------------------------------------------------
      1          6           0        0.394090    0.000710    0.000600
      2          1           0        0.718820   -0.834200    0.606540
      3          1           0        0.719810    0.943380    0.422050
      4          1           0        0.715640   -0.105370   -1.024300
      5         17           0        3.407570   -0.000090   -0.000470
      6         35           0       -1.597340   -0.000120    0.000060
 ---------------------------------------------------------------------

 SCF Done:  E(RM062X) =  -3074.35170129     A.U. after   13 cycles

 Alpha  occ. eigenvalues -- -485.19177-102.36180 -63.18400 -57.01118 -57.00902
 Alpha  occ. eigenvalues --  -57.00902 -10.44586  -9.50339  -8.87094  -7.22456
 Alpha  occ. eigenvalues --   -7.22433  -7.22433  -6.69784  -6.68922  -6.68922
 Alpha  occ. eigenvalues --   -2.72937  -2.72641  -2.72641  -2.71877  -2.71877
 Alpha  occ. eigenvalues --   -0.75638  -0.61920  -0.58809  -0.36514  -0.36431
 Alpha  occ. eigenvalues --   -0.30062  -0.21028  -0.21023  -0.10396  -0.10395
 Alpha  occ. eigenvalues --   -0.10383
 Alpha virt. eigenvalues --    0.17048   0.23761   0.28516   0.28541   0.43600
 Alpha virt. eigenvalues --    0.45502   0.45529   0.46705   0.46707   0.55590
 Alpha virt. eigenvalues --    0.56809   0.56814   0.57090   0.66824   0.75915

 Mulliken charges:
               1
     1  C   -0.397300
     2  H    0.193809
     3  H    0.193698
     4  H    0.193848
     5  Cl  -0.934260
     6  Br  -0.249795
 Sum of Mulliken charges =  -1.00000

 Dipole moment (field-independent basis, Debye):
    X=            -11.8824    Y=              0.0015    Z=              0.0029  Tot=             11.8824
 Quadrupole moment (field-independent basis, Debye-Ang):
   XX=            -99.4717   YY=            -43.0185   ZZ=            -43.0160
   XY=              0.0049   XZ=              0.0147   YZ=             -0.0005

 Normal termination of Gaussian 16 at Tue Jan 22 16:52:55 2019.
