 Gaussian 16, Revision A.03,
 Gaussian 16:  ES64L-G16RevA.03 25-Dec-2016

 -------------------------------------------
 # M062X/6-311G** force nosymm int=ultrafine
 -------------------------------------------

 -----
 Title
 -----
 Symbolic Z-matrix:
 Charge = -1 Multiplicity = 1

                          Input orientation:
 ---------------------------------------------------------------------
 Center     Atomic      Atomic             Coordinates (Angstroms)
 Number     Number       Type             X           Y           Z
 ---------------------------------------------------------------------
      1          6           0        0.418020    0.000760    0.001370
      2          1           0        0.740020   -0.836590    0.603610
      3          1           0        0.739160    0.941140    0.425690
      4          1           0        0.740480   -0.101790   -1.024790
      5         17           0        3.339560   -0.000170   -0.000450
      6         35           0       -1.571670   -0.000070   -0.000070
 ---------------------------------------------------------------------

 SCF Done:  E(RM062X) =  -3074.35118212     A.U. after   13 cycles

 Alpha  occ. eigenvalues -- -485.18802-102.36275 -63.18029 -57.00745 -57.00532
 Alpha  occ. eigenvalues --  -57.00532 -10.44197  -9.50451  -8.86726  -7.22566
 Alpha  occ. eigenvalues --   -7.22544  -7.22544  -6.69408  -6.68559  -6.68559
 Alpha  occ. eigenvalues --   -2.72562  -2.72270  -2.72270  -2.71517  -2.71517
 Alpha  occ. eigenvalues --   -0.75346  -0.61782  -0.58809  -0.36198  -0.36194
 Alpha  occ. eigenvalues --   -0.29767  -0.20711  -0.20710  -0.10544  -0.10543
 Alpha  occ. eigenvalues --   -0.10459
 Alpha virt. eigenvalues --    0.17539   0.23919   0.28777   0.28784   0.43982
 Alpha virt. eigenvalues --    0.45805   0.45808   0.46965   0.46967   0.55623
 Alpha virt. eigenvalues --    0.56595   0.56759   0.56768   0.68232   0.76275

 Mulliken charges:
               1
     1  C   -0.398807
     2  H    0.194063
     3  H    0.193958
     4  H    0.194184
     5  Cl  -0.925799
     6  Br  -0.257600
 Sum of Mulliken charges =  -1.00000

 Dipole moment (field-independent basis, Debye):
    X=            -11.4472    Y=              0.0017    Z=              0.0034  Tot=             11.4472
 Quadrupole moment (field-independent basis, Debye-Ang):
   XX=            -97.3013   YY=            -43.0155   ZZ=            -43.0154
   XY=              0.0028   XZ=              0.0085   YZ=             -0.0002

 Normal termination of Gaussian 16 at Tue Jan 22 16:52:10 2019.
