 Gaussian 16, Revision A.03,
 Gaussian 16:  ES64L-G16RevA.03 25-Dec-2016

 -------------------------------------------
 # M062X/6-311G** force nosymm int=ultrafine
 -------------------------------------------

 -----
 Title
 -----
 Symbolic Z-matrix:
 Charge = -1 Multiplicity = 1

                          Input orientation:
 ---------------------------------------------------------------------
 Center     Atomic      Atomic             Coordinates (Angstroms)
 Number     Number       Type             X           Y           Z
 ---------------------------------------------------------------------
      1          6           0        1.285050    0.000180    0.001160
      2          1           0        0.965540   -0.838320    0.601590
      3          1           0        0.965620    0.939210    0.427580
      4          1           0        0.964170   -0.100000   -1.024830
      5         17           0        3.135050   -0.000050   -0.000190
      6         35           0       -1.621520   -0.000020   -0.000150
 ---------------------------------------------------------------------

 SCF Done:  E(RM062X) =  -3074.35525884     A.U. after   14 cycles

 Alpha  occ. eigenvalues -- -485.04115-102.52132 -63.03349 -56.85931 -56.85928
 Alpha  occ. eigenvalues --  -56.85928 -10.44043  -9.66345  -8.71952  -7.38785
 Alpha  occ. eigenvalues --   -7.38235  -7.38235  -6.54108  -6.54074  -6.54074
 Alpha  occ. eigenvalues --   -2.57295  -2.57284  -2.57283  -2.57258  -2.57258
 Alpha  occ. eigenvalues --   -0.79886  -0.62308  -0.55441  -0.36599  -0.36595
 Alpha  occ. eigenvalues --   -0.31984  -0.22750  -0.22750  -0.09407  -0.09406
 Alpha  occ. eigenvalues --   -0.09267
 Alpha virt. eigenvalues --    0.20739   0.23685   0.28844   0.28851   0.43548
 Alpha virt. eigenvalues --    0.46761   0.46764   0.47483   0.47485   0.52921
 Alpha virt. eigenvalues --    0.56465   0.56471   0.62239   0.72222   0.73830

 Mulliken charges:
               1
     1  C   -0.387788
     2  H    0.189591
     3  H    0.189573
     4  H    0.189745
     5  Cl  -0.274340
     6  Br  -0.906780
 Sum of Mulliken charges =  -1.00000

 Dipole moment (field-independent basis, Debye):
    X=              3.0926    Y=              0.0007    Z=              0.0025  Tot=              3.0926
 Quadrupole moment (field-independent basis, Debye-Ang):
   XX=            -71.9384   YY=            -43.1796   ZZ=            -43.1784
   XY=              0.0002   XZ=              0.0016   YZ=             -0.0006

 Normal termination of Gaussian 16 at Tue Jan 22 16:55:37 2019.
