 Gaussian 16, Revision A.03,
 Gaussian 16:  ES64L-G16RevA.03 25-Dec-2016

 -------------------------------------------
 # M062X/6-311G** force nosymm int=ultrafine
 -------------------------------------------

 -----
 Title
 -----
 Symbolic Z-matrix:
 Charge = -1 Multiplicity = 1

                          Input orientation:
 ---------------------------------------------------------------------
 Center     Atomic      Atomic             Coordinates (Angstroms)
 Number     Number       Type             X           Y           Z
 ---------------------------------------------------------------------
      1          6           0        0.426430    0.000560    0.001410
      2          1           0        0.753110   -0.837960    0.603460
      3          1           0        0.752480    0.941250    0.426990
      4          1           0        0.753850   -0.101180   -1.025500
      5         17           0        3.312850   -0.000130   -0.000400
      6         35           0       -1.561630   -0.000050   -0.000100
 ---------------------------------------------------------------------

 SCF Done:  E(RM062X) =  -3074.35078096     A.U. after   13 cycles

 Alpha  occ. eigenvalues -- -485.18677-102.36307 -63.17905 -57.00619 -57.00408
 Alpha  occ. eigenvalues --  -57.00408 -10.44069  -9.50491  -8.86602  -7.22606
 Alpha  occ. eigenvalues --   -7.22584  -7.22584  -6.69282  -6.68436  -6.68436
 Alpha  occ. eigenvalues --   -2.72437  -2.72145  -2.72145  -2.71396  -2.71396
 Alpha  occ. eigenvalues --   -0.75213  -0.61717  -0.58771  -0.35967  -0.35967
 Alpha  occ. eigenvalues --   -0.29707  -0.20590  -0.20590  -0.10602  -0.10601
 Alpha  occ. eigenvalues --   -0.10482
 Alpha virt. eigenvalues --    0.17732   0.23990   0.28868   0.28877   0.44147
 Alpha virt. eigenvalues --    0.45898   0.45900   0.47059   0.47061   0.55229
 Alpha virt. eigenvalues --    0.56747   0.56756   0.56778   0.68799   0.76314

 Mulliken charges:
               1
     1  C   -0.402288
     2  H    0.194389
     3  H    0.194313
     4  H    0.194549
     5  Cl  -0.922118
     6  Br  -0.258845
 Sum of Mulliken charges =  -1.00000

 Dipole moment (field-independent basis, Debye):
    X=            -11.2840    Y=              0.0013    Z=              0.0033  Tot=             11.2840
 Quadrupole moment (field-independent basis, Debye-Ang):
   XX=            -96.4403   YY=            -43.0231   ZZ=            -43.0227
   XY=              0.0021   XZ=              0.0076   YZ=             -0.0002

 Normal termination of Gaussian 16 at Tue Jan 22 16:51:50 2019.
