 Gaussian 16, Revision A.03,
 Gaussian 16:  ES64L-G16RevA.03 25-Dec-2016

 -------------------------------------------
 # M062X/6-311G** force nosymm int=ultrafine
 -------------------------------------------

 -----
 Title
 -----
 Symbolic Z-matrix:
 Charge = -1 Multiplicity = 1

                          Input orientation:
 ---------------------------------------------------------------------
 Center     Atomic      Atomic             Coordinates (Angstroms)
 Number     Number       Type             X           Y           Z
 ---------------------------------------------------------------------
      1          6           0        0.404570    0.001110    0.001370
      2          1           0        0.728230   -0.834930    0.605730
      3          1           0        0.728280    0.942770    0.423950
      4          1           0        0.726740   -0.103520   -1.024550
      5         17           0        3.380730   -0.000220   -0.000560
      6         35           0       -1.587410   -0.000130   -0.000020
 ---------------------------------------------------------------------

 SCF Done:  E(RM062X) =  -3074.35156735     A.U. after   13 cycles

 Alpha  occ. eigenvalues -- -485.19026-102.36225 -63.18250 -57.00967 -57.00752
 Alpha  occ. eigenvalues --  -57.00752 -10.44446  -9.50391  -8.86944  -7.22507
 Alpha  occ. eigenvalues --   -7.22484  -7.22484  -6.69631  -6.68774  -6.68774
 Alpha  occ. eigenvalues --   -2.72784  -2.72490  -2.72490  -2.71730  -2.71730
 Alpha  occ. eigenvalues --   -0.75497  -0.61860  -0.58823  -0.36371  -0.36336
 Alpha  occ. eigenvalues --   -0.29928  -0.20901  -0.20900  -0.10460  -0.10459
 Alpha  occ. eigenvalues --   -0.10422
 Alpha virt. eigenvalues --    0.17216   0.23822   0.28622   0.28637   0.43747
 Alpha virt. eigenvalues --    0.45621   0.45633   0.46810   0.46813   0.55810
 Alpha virt. eigenvalues --    0.56685   0.56785   0.56792   0.67363   0.76061

 Mulliken charges:
               1
     1  C   -0.397537
     2  H    0.193920
     3  H    0.193784
     4  H    0.193980
     5  Cl  -0.930838
     6  Br  -0.253309
 Sum of Mulliken charges =  -1.00000

 Dipole moment (field-independent basis, Debye):
    X=            -11.7037    Y=              0.0024    Z=              0.0038  Tot=             11.7037
 Quadrupole moment (field-independent basis, Debye-Ang):
   XX=            -98.5981   YY=            -43.0195   ZZ=            -43.0177
   XY=              0.0060   XZ=              0.0142   YZ=             -0.0004

 Normal termination of Gaussian 16 at Tue Jan 22 16:52:38 2019.
