 Gaussian 16, Revision A.03,
 Gaussian 16:  ES64L-G16RevA.03 25-Dec-2016

 -------------------------------------------
 # M062X/6-311G** force nosymm int=ultrafine
 -------------------------------------------

 -----
 Title
 -----
 Symbolic Z-matrix:
 Charge = -1 Multiplicity = 1

                          Input orientation:
 ---------------------------------------------------------------------
 Center     Atomic      Atomic             Coordinates (Angstroms)
 Number     Number       Type             X           Y           Z
 ---------------------------------------------------------------------
      1          6           0        1.083760    0.000140    0.001160
      2          1           0        0.889130   -0.860140    0.617280
      3          1           0        0.889150    0.963760    0.438330
      4          1           0        0.888550   -0.103040   -1.051780
      5         17           0        3.161040   -0.000040   -0.000210
      6         35           0       -1.599510   -0.000010   -0.000130
 ---------------------------------------------------------------------

 SCF Done:  E(RM062X) =  -3074.34513945     A.U. after   14 cycles

 Alpha  occ. eigenvalues -- -485.06402-102.48913 -63.05643 -56.88244 -56.88209
 Alpha  occ. eigenvalues --  -56.88209 -10.45553  -9.63010  -8.74260  -7.35386
 Alpha  occ. eigenvalues --   -7.34936  -7.34936  -6.56494  -6.56337  -6.56336
 Alpha  occ. eigenvalues --   -2.59672  -2.59623  -2.59622  -2.59488  -2.59488
 Alpha  occ. eigenvalues --   -0.74572  -0.63528  -0.57255  -0.36803  -0.36800
 Alpha  occ. eigenvalues --   -0.27068  -0.20803  -0.20803  -0.11374  -0.11373
 Alpha  occ. eigenvalues --   -0.11057
 Alpha virt. eigenvalues --    0.16953   0.22890   0.28841   0.28847   0.44134
 Alpha virt. eigenvalues --    0.46840   0.46842   0.49001   0.49001   0.50577
 Alpha virt. eigenvalues --    0.55098   0.55102   0.66275   0.69550   0.74001

 Mulliken charges:
               1
     1  C   -0.345048
     2  H    0.198370
     3  H    0.198363
     4  H    0.198501
     5  Cl  -0.432392
     6  Br  -0.817795
 Sum of Mulliken charges =  -1.00000

 Dipole moment (field-independent basis, Debye):
    X=              0.4143    Y=              0.0005    Z=              0.0026  Tot=              0.4144
 Quadrupole moment (field-independent basis, Debye-Ang):
   XX=            -77.6378   YY=            -43.1629   ZZ=            -43.1619
   XY=              0.0002   XZ=              0.0018   YZ=             -0.0004

 Normal termination of Gaussian 16 at Tue Jan 22 16:54:30 2019.
