 Gaussian 16, Revision A.03,
 Gaussian 16:  ES64L-G16RevA.03 25-Dec-2016

 -------------------------------------------
 # M062X/6-311G** force nosymm int=ultrafine
 -------------------------------------------

 -----
 Title
 -----
 Symbolic Z-matrix:
 Charge = -1 Multiplicity = 1

                          Input orientation:
 ---------------------------------------------------------------------
 Center     Atomic      Atomic             Coordinates (Angstroms)
 Number     Number       Type             X           Y           Z
 ---------------------------------------------------------------------
      1          6           0        1.350230    0.000490    0.001570
      2          1           0        1.016790   -0.835870    0.600610
      3          1           0        1.017620    0.937240    0.427080
      4          1           0        1.016570   -0.099420   -1.021740
      5         17           0        3.178340   -0.000100   -0.000260
      6         35           0       -1.652600   -0.000060   -0.000200
 ---------------------------------------------------------------------

 SCF Done:  E(RM062X) =  -3074.35700744     A.U. after   13 cycles

 Alpha  occ. eigenvalues -- -485.03930-102.52669 -63.03153 -56.85737 -56.85734
 Alpha  occ. eigenvalues --  -56.85734 -10.44184  -9.66896  -8.71750  -7.39344
 Alpha  occ. eigenvalues --   -7.38781  -7.38781  -6.53901  -6.53873  -6.53873
 Alpha  occ. eigenvalues --   -2.57089  -2.57079  -2.57079  -2.57057  -2.57057
 Alpha  occ. eigenvalues --   -0.80695  -0.62319  -0.55265  -0.36837  -0.36825
 Alpha  occ. eigenvalues --   -0.32708  -0.23066  -0.23065  -0.09190  -0.09189
 Alpha  occ. eigenvalues --   -0.09138
 Alpha virt. eigenvalues --    0.20781   0.23685   0.28624   0.28634   0.43359
 Alpha virt. eigenvalues --    0.46515   0.46520   0.47205   0.47206   0.53480
 Alpha virt. eigenvalues --    0.56592   0.56598   0.60611   0.72076   0.74193

 Mulliken charges:
               1
     1  C   -0.393839
     2  H    0.188639
     3  H    0.188581
     4  H    0.188814
     5  Cl  -0.254473
     6  Br  -0.917722
 Sum of Mulliken charges =  -1.00000

 Dipole moment (field-independent basis, Debye):
    X=              3.4816    Y=              0.0013    Z=              0.0032  Tot=              3.4816
 Quadrupole moment (field-independent basis, Debye-Ang):
   XX=            -71.8398   YY=            -43.1834   ZZ=            -43.1815
   XY=              0.0009   XZ=             -0.0001   YZ=             -0.0004

 Normal termination of Gaussian 16 at Tue Jan 22 16:56:16 2019.
