 Gaussian 16, Revision A.03,
 Gaussian 16:  ES64L-G16RevA.03 25-Dec-2016

 -------------------------------------------
 # M062X/6-311G** force nosymm int=ultrafine
 -------------------------------------------

 -----
 Title
 -----
 Symbolic Z-matrix:
 Charge = -1 Multiplicity = 1

                          Input orientation:
 ---------------------------------------------------------------------
 Center     Atomic      Atomic             Coordinates (Angstroms)
 Number     Number       Type             X           Y           Z
 ---------------------------------------------------------------------
      1          6           0        1.211050    0.000140    0.001120
      2          1           0        0.927900   -0.846120    0.607220
      3          1           0        0.927930    0.947990    0.431330
      4          1           0        0.926780   -0.101210   -1.034500
      5         17           0        3.139330   -0.000040   -0.000190
      6         35           0       -1.610720   -0.000010   -0.000140
 ---------------------------------------------------------------------

 SCF Done:  E(RM062X) =  -3074.35258777     A.U. after   14 cycles

 Alpha  occ. eigenvalues -- -485.04722-102.51236 -63.03961 -56.86547 -56.86537
 Alpha  occ. eigenvalues --  -56.86537 -10.44619  -9.65385  -8.72570  -7.37807
 Alpha  occ. eigenvalues --   -7.37286  -7.37286  -6.54745  -6.54681  -6.54681
 Alpha  occ. eigenvalues --   -2.57929  -2.57909  -2.57909  -2.57857  -2.57857
 Alpha  occ. eigenvalues --   -0.77974  -0.62727  -0.55960  -0.36503  -0.36501
 Alpha  occ. eigenvalues --   -0.30307  -0.22326  -0.22325  -0.09958  -0.09957
 Alpha  occ. eigenvalues --   -0.09762
 Alpha virt. eigenvalues --    0.19284   0.23407   0.28908   0.28914   0.43459
 Alpha virt. eigenvalues --    0.46762   0.46764   0.47932   0.47933   0.52186
 Alpha virt. eigenvalues --    0.56064   0.56070   0.64266   0.71304   0.73455

 Mulliken charges:
               1
     1  C   -0.367523
     2  H    0.192285
     3  H    0.192274
     4  H    0.192425
     5  Cl  -0.325197
     6  Br  -0.884264
 Sum of Mulliken charges =  -1.00000

 Dipole moment (field-independent basis, Debye):
    X=              2.3162    Y=              0.0005    Z=              0.0025  Tot=              2.3162
 Quadrupole moment (field-independent basis, Debye-Ang):
   XX=            -73.6249   YY=            -43.1928   ZZ=            -43.1917
   XY=              0.0002   XZ=              0.0016   YZ=             -0.0004

 Normal termination of Gaussian 16 at Tue Jan 22 16:55:13 2019.
