 Gaussian 16, Revision A.03,
 Gaussian 16:  ES64L-G16RevA.03 25-Dec-2016

 -------------------------------------------
 # M062X/6-311G** force nosymm int=ultrafine
 -------------------------------------------

 -----
 Title
 -----
 Symbolic Z-matrix:
 Charge = -1 Multiplicity = 1

                          Input orientation:
 ---------------------------------------------------------------------
 Center     Atomic      Atomic             Coordinates (Angstroms)
 Number     Number       Type             X           Y           Z
 ---------------------------------------------------------------------
      1          6           0        0.825580    0.000110    0.001390
      2          1           0        0.865190   -0.872480    0.625380
      3          1           0        0.865220    0.976810    0.445030
      4          1           0        0.865070   -0.104040   -1.066190
      5         17           0        3.205810   -0.000020   -0.000330
      6         35           0       -1.579180   -0.000010   -0.000120
 ---------------------------------------------------------------------

 SCF Done:  E(RM062X) =  -3074.33757763     A.U. after   14 cycles

 Alpha  occ. eigenvalues -- -485.11718-102.42647 -63.10938 -56.93594 -56.93474
 Alpha  occ. eigenvalues --  -56.93474 -10.45957  -9.56790  -8.79565  -7.29036
 Alpha  occ. eigenvalues --   -7.28793  -7.28793  -6.61997  -6.61525  -6.61525
 Alpha  occ. eigenvalues --   -2.65156  -2.65006  -2.65006  -2.64591  -2.64591
 Alpha  occ. eigenvalues --   -0.69376  -0.64823  -0.59798  -0.36999  -0.36999
 Alpha  occ. eigenvalues --   -0.23173  -0.16202  -0.16202  -0.15343  -0.15342
 Alpha  occ. eigenvalues --   -0.13329
 Alpha virt. eigenvalues --    0.15013   0.22533   0.28825   0.28831   0.46747
 Alpha virt. eigenvalues --    0.47013   0.47016   0.47986   0.50350   0.50352
 Alpha virt. eigenvalues --    0.53810   0.53813   0.64851   0.66508   0.76699

 Mulliken charges:
               1
     1  C   -0.351536
     2  H    0.205267
     3  H    0.205271
     4  H    0.205422
     5  Cl  -0.676786
     6  Br  -0.587638
 Sum of Mulliken charges =  -1.00000

 Dipole moment (field-independent basis, Debye):
    X=             -4.8601    Y=              0.0003    Z=              0.0033  Tot=              4.8601
 Quadrupole moment (field-independent basis, Debye-Ang):
   XX=            -86.7196   YY=            -43.0562   ZZ=            -43.0559
   XY=              0.0002   XZ=              0.0049   YZ=             -0.0001

 Normal termination of Gaussian 16 at Tue Jan 22 16:48:46 2019.
