 Gaussian 16, Revision A.03,
 Gaussian 16:  ES64L-G16RevA.03 25-Dec-2016

 -------------------------------------------
 # M062X/6-311G** force nosymm int=ultrafine
 -------------------------------------------

 -----
 Title
 -----
 Symbolic Z-matrix:
 Charge = -1 Multiplicity = 1

                          Input orientation:
 ---------------------------------------------------------------------
 Center     Atomic      Atomic             Coordinates (Angstroms)
 Number     Number       Type             X           Y           Z
 ---------------------------------------------------------------------
      1          6           0        0.740140    0.000090    0.001340
      2          1           0        0.755390   -0.872740    0.625510
      3          1           0        0.755410    0.977070    0.445110
      4          1           0        0.755170   -0.104080   -1.066540
      5         17           0        3.089940   -0.000030   -0.000370
      6         35           0       -1.692450   -0.000010   -0.000170
 ---------------------------------------------------------------------

 SCF Done:  E(RM062X) =  -3074.33747406     A.U. after   14 cycles

 Alpha  occ. eigenvalues -- -485.11146-102.43279 -63.10369 -56.93019 -56.92908
 Alpha  occ. eigenvalues --  -56.92908 -10.45979  -9.57413  -8.78994  -7.29673
 Alpha  occ. eigenvalues --   -7.29408  -7.29408  -6.61406  -6.60967  -6.60967
 Alpha  occ. eigenvalues --   -2.64567  -2.64428  -2.64427  -2.64041  -2.64041
 Alpha  occ. eigenvalues --   -0.69609  -0.64793  -0.59659  -0.37030  -0.37029
 Alpha  occ. eigenvalues --   -0.23212  -0.16550  -0.16549  -0.15047  -0.15046
 Alpha  occ. eigenvalues --   -0.13299
 Alpha virt. eigenvalues --    0.15064   0.22508   0.28816   0.28822   0.46891
 Alpha virt. eigenvalues --    0.47077   0.47079   0.47736   0.50410   0.50412
 Alpha virt. eigenvalues --    0.53739   0.53743   0.65167   0.66626   0.76739

 Mulliken charges:
               1
     1  C   -0.351346
     2  H    0.205203
     3  H    0.205207
     4  H    0.205356
     5  Cl  -0.652224
     6  Br  -0.612196
 Sum of Mulliken charges =  -1.00000

 Dipole moment (field-independent basis, Debye):
    X=             -3.7788    Y=              0.0004    Z=              0.0035  Tot=              3.7788
 Quadrupole moment (field-independent basis, Debye-Ang):
   XX=            -84.9258   YY=            -43.0611   ZZ=            -43.0609
   XY=              0.0002   XZ=              0.0045   YZ=             -0.0002

 Optimization completed.
    -- Stationary point found.
 Normal termination of Gaussian 16 at Tue Jan 22 16:48:25 2019.
