 Gaussian 16, Revision A.03,
 Gaussian 16:  ES64L-G16RevA.03 25-Dec-2016

 -------------------------------------------
 # M062X/6-311G** force nosymm int=ultrafine
 -------------------------------------------

 -----
 Title
 -----
 Symbolic Z-matrix:
 Charge = -1 Multiplicity = 1

                          Input orientation:
 ---------------------------------------------------------------------
 Center     Atomic      Atomic             Coordinates (Angstroms)
 Number     Number       Type             X           Y           Z
 ---------------------------------------------------------------------
      1          6           0        0.423290    0.000680    0.001430
      2          1           0        0.741650   -0.836430    0.602970
      3          1           0        0.740920    0.940290    0.426000
      4          1           0        0.742200   -0.101290   -1.024120
      5         17           0        3.325990   -0.000160   -0.000420
      6         35           0       -1.566530   -0.000070   -0.000090
 ---------------------------------------------------------------------

 SCF Done:  E(RM062X) =  -3074.35099701     A.U. after   13 cycles

 Alpha  occ. eigenvalues -- -485.18708-102.36296 -63.17937 -57.00651 -57.00440
 Alpha  occ. eigenvalues --  -57.00440 -10.44098  -9.50476  -8.86634  -7.22591
 Alpha  occ. eigenvalues --   -7.22568  -7.22568  -6.69314  -6.68468  -6.68468
 Alpha  occ. eigenvalues --   -2.72468  -2.72177  -2.72177  -2.71428  -2.71428
 Alpha  occ. eigenvalues --   -0.75296  -0.61791  -0.58809  -0.36211  -0.36210
 Alpha  occ. eigenvalues --   -0.29679  -0.20643  -0.20642  -0.10576  -0.10575
 Alpha  occ. eigenvalues --   -0.10475
 Alpha virt. eigenvalues --    0.17645   0.23945   0.28832   0.28840   0.44054
 Alpha virt. eigenvalues --    0.45875   0.45877   0.47025   0.47027   0.55445
 Alpha virt. eigenvalues --    0.56709   0.56743   0.56752   0.68528   0.76389

 Mulliken charges:
               1
     1  C   -0.397873
     2  H    0.194047
     3  H    0.193951
     4  H    0.194185
     5  Cl  -0.923945
     6  Br  -0.260367
 Sum of Mulliken charges =  -1.00000

 Dipole moment (field-independent basis, Debye):
    X=            -11.3535    Y=              0.0016    Z=              0.0034  Tot=             11.3535
 Quadrupole moment (field-independent basis, Debye-Ang):
   XX=            -96.8903   YY=            -43.0098   ZZ=            -43.0094
   XY=              0.0027   XZ=              0.0081   YZ=             -0.0003

 Normal termination of Gaussian 16 at Tue Jan 22 16:52:00 2019.
