 Gaussian 16, Revision A.03,
 Gaussian 16:  ES64L-G16RevA.03 25-Dec-2016

 -------------------------------------------
 # M062X/6-311G** force nosymm int=ultrafine
 -------------------------------------------

 -----
 Title
 -----
 Symbolic Z-matrix:
 Charge = -1 Multiplicity = 1

                          Input orientation:
 ---------------------------------------------------------------------
 Center     Atomic      Atomic             Coordinates (Angstroms)
 Number     Number       Type             X           Y           Z
 ---------------------------------------------------------------------
      1          6           0        0.413900    0.000840    0.001290
      2          1           0        0.736110   -0.836320    0.604200
      3          1           0        0.735320    0.941770    0.425150
      4          1           0        0.736170   -0.102330   -1.025080
      5         17           0        3.353280   -0.000190   -0.000480
      6         35           0       -1.576970   -0.000090   -0.000040
 ---------------------------------------------------------------------

 SCF Done:  E(RM062X) =  -3074.35133645     A.U. after   13 cycles

 Alpha  occ. eigenvalues -- -485.18874-102.36261 -63.18100 -57.00816 -57.00602
 Alpha  occ. eigenvalues --  -57.00602 -10.44288  -9.50433  -8.86795  -7.22549
 Alpha  occ. eigenvalues --   -7.22526  -7.22526  -6.69479  -6.68627  -6.68627
 Alpha  occ. eigenvalues --   -2.72633  -2.72340  -2.72340  -2.71585  -2.71585
 Alpha  occ. eigenvalues --   -0.75388  -0.61804  -0.58818  -0.36250  -0.36248
 Alpha  occ. eigenvalues --   -0.29811  -0.20773  -0.20772  -0.10518  -0.10517
 Alpha  occ. eigenvalues --   -0.10449
 Alpha virt. eigenvalues --    0.17424   0.23883   0.28724   0.28732   0.43902
 Alpha virt. eigenvalues --    0.45746   0.45747   0.46915   0.46917   0.55766
 Alpha virt. eigenvalues --    0.56546   0.56766   0.56774   0.67930   0.76202

 Mulliken charges:
               1
     1  C   -0.398152
     2  H    0.194016
     3  H    0.193897
     4  H    0.194110
     5  Cl  -0.927462
     6  Br  -0.256409
 Sum of Mulliken charges =  -1.00000

 Dipole moment (field-independent basis, Debye):
    X=            -11.5301    Y=              0.0019    Z=              0.0034  Tot=             11.5301
 Quadrupole moment (field-independent basis, Debye-Ang):
   XX=            -97.7314   YY=            -43.0168   ZZ=            -43.0165
   XY=              0.0035   XZ=              0.0095   YZ=             -0.0003

 Normal termination of Gaussian 16 at Tue Jan 22 16:52:19 2019.
