 Gaussian 16, Revision A.03,
 Gaussian 16:  ES64L-G16RevA.03 25-Dec-2016

 -------------------------------------------
 # M062X/6-311G** force nosymm int=ultrafine
 -------------------------------------------

 -----
 Title
 -----
 Symbolic Z-matrix:
 Charge = -1 Multiplicity = 1

                          Input orientation:
 ---------------------------------------------------------------------
 Center     Atomic      Atomic             Coordinates (Angstroms)
 Number     Number       Type             X           Y           Z
 ---------------------------------------------------------------------
      1          6           0        0.495430    0.000400    0.001200
      2          1           0        0.785420   -0.844300    0.606670
      3          1           0        0.785170    0.947010    0.430400
      4          1           0        0.786730   -0.101250   -1.032710
      5         17           0        3.269740   -0.000100   -0.000310
      6         35           0       -1.554260   -0.000030   -0.000100
 ---------------------------------------------------------------------

 SCF Done:  E(RM062X) =  -3074.34925914     A.U. after   13 cycles

 Alpha  occ. eigenvalues -- -485.17820-102.36841 -63.17039 -56.99749 -56.99546
 Alpha  occ. eigenvalues --  -56.99546 -10.44312  -9.51039  -8.85716  -7.23161
 Alpha  occ. eigenvalues --   -7.23124  -7.23124  -6.68367  -6.67563  -6.67563
 Alpha  occ. eigenvalues --   -2.71518  -2.71247  -2.71247  -2.70535  -2.70535
 Alpha  occ. eigenvalues --   -0.73826  -0.62159  -0.59037  -0.36029  -0.36027
 Alpha  occ. eigenvalues --   -0.28331  -0.20090  -0.20090  -0.11127  -0.11126
 Alpha  occ. eigenvalues --   -0.10878
 Alpha virt. eigenvalues --    0.17129   0.23770   0.29036   0.29044   0.44280
 Alpha virt. eigenvalues --    0.46060   0.46063   0.47612   0.47614   0.53817
 Alpha virt. eigenvalues --    0.56375   0.56383   0.58272   0.69100   0.76555

 Mulliken charges:
               1
     1  C   -0.383733
     2  H    0.195944
     3  H    0.195900
     4  H    0.196114
     5  Cl  -0.900429
     6  Br  -0.303796
 Sum of Mulliken charges =  -1.00000

 Dipole moment (field-independent basis, Debye):
    X=            -10.4751    Y=              0.0010    Z=              0.0029  Tot=             10.4751
 Quadrupole moment (field-independent basis, Debye-Ang):
   XX=            -94.8033   YY=            -43.0351   ZZ=            -43.0345
   XY=              0.0017   XZ=              0.0048   YZ=             -0.0003

 Normal termination of Gaussian 16 at Tue Jan 22 16:51:12 2019.
