 Gaussian 16, Revision A.03,
 Gaussian 16:  ES64L-G16RevA.03 25-Dec-2016

 -------------------------------------------
 # M062X/6-311G** force nosymm int=ultrafine
 -------------------------------------------

 -----
 Title
 -----
 Symbolic Z-matrix:
 Charge = -1 Multiplicity = 1

                          Input orientation:
 ---------------------------------------------------------------------
 Center     Atomic      Atomic             Coordinates (Angstroms)
 Number     Number       Type             X           Y           Z
 ---------------------------------------------------------------------
      1          6           0        0.903170    0.000130    0.001310
      2          1           0        0.869920   -0.872540    0.625890
      3          1           0        0.869710    0.977320    0.444890
      4          1           0        0.869640   -0.104320   -1.066670
      5         17           0        3.192250   -0.000030   -0.000290
      6         35           0       -1.585150   -0.000010   -0.000120
 ---------------------------------------------------------------------

 SCF Done:  E(RM062X) =  -3074.33786491     A.U. after   14 cycles

 Alpha  occ. eigenvalues -- -485.10013-102.44549 -63.09240 -56.91879 -56.91786
 Alpha  occ. eigenvalues --  -56.91786 -10.46014  -9.58669  -8.77863  -7.30956
 Alpha  occ. eigenvalues --   -7.30647  -7.30647  -6.60234  -6.59860  -6.59860
 Alpha  occ. eigenvalues --   -2.63398  -2.63280  -2.63280  -2.62953  -2.62953
 Alpha  occ. eigenvalues --   -0.70361  -0.64578  -0.59271  -0.37043  -0.37040
 Alpha  occ. eigenvalues --   -0.23573  -0.17491  -0.17490  -0.14218  -0.14218
 Alpha  occ. eigenvalues --   -0.13049
 Alpha virt. eigenvalues --    0.15252   0.22484   0.28793   0.28799   0.46425
 Alpha virt. eigenvalues --    0.47132   0.47133   0.48054   0.50350   0.50351
 Alpha virt. eigenvalues --    0.53782   0.53786   0.65546   0.67134   0.76759

 Mulliken charges:
               1
     1  C   -0.350467
     2  H    0.204851
     3  H    0.204847
     4  H    0.204997
     5  Cl  -0.603124
     6  Br  -0.661103
 Sum of Mulliken charges =  -1.00000

 Dipole moment (field-independent basis, Debye):
    X=             -3.2202    Y=              0.0004    Z=              0.0031  Tot=              3.2202
 Quadrupole moment (field-independent basis, Debye-Ang):
   XX=            -84.0324   YY=            -43.0764   ZZ=            -43.0755
   XY=             -0.0002   XZ=              0.0037   YZ=             -0.0003

 Normal termination of Gaussian 16 at Tue Jan 22 16:53:29 2019.
