 Gaussian 16, Revision A.03,
 Gaussian 16:  ES64L-G16RevA.03 25-Dec-2016

 -------------------------------------------
 # M062X/6-311G** force nosymm int=ultrafine
 -------------------------------------------

 -----
 Title
 -----
 Symbolic Z-matrix:
 Charge = -1 Multiplicity = 1

                          Input orientation:
 ---------------------------------------------------------------------
 Center     Atomic      Atomic             Coordinates (Angstroms)
 Number     Number       Type             X           Y           Z
 ---------------------------------------------------------------------
      1          6           0        1.370850    0.000620    0.001910
      2          1           0        1.032510   -0.835580    0.601570
      3          1           0        1.036390    0.937100    0.427610
      4          1           0        1.039890   -0.099680   -1.020490
      5         17           0        3.199600   -0.000080   -0.000330
      6         35           0       -1.665890   -0.000080   -0.000260
 ---------------------------------------------------------------------

 SCF Done:  E(RM062X) =  -3074.35750089     A.U. after   13 cycles

 Alpha  occ. eigenvalues -- -485.03912-102.52815 -63.03133 -56.85718 -56.85714
 Alpha  occ. eigenvalues --  -56.85714 -10.44324  -9.67036  -8.71727  -7.39487
 Alpha  occ. eigenvalues --   -7.38921  -7.38921  -6.53879  -6.53850  -6.53850
 Alpha  occ. eigenvalues --   -2.57066  -2.57056  -2.57056  -2.57034  -2.57033
 Alpha  occ. eigenvalues --   -0.80802  -0.62405  -0.55241  -0.36975  -0.36870
 Alpha  occ. eigenvalues --   -0.32822  -0.23188  -0.23178  -0.09154  -0.09152
 Alpha  occ. eigenvalues --   -0.09133
 Alpha virt. eigenvalues --    0.20595   0.23641   0.28532   0.28557   0.43220
 Alpha virt. eigenvalues --    0.46396   0.46440   0.47107   0.47113   0.53660
 Alpha virt. eigenvalues --    0.56602   0.56605   0.60131   0.71912   0.74316

 Mulliken charges:
               1
     1  C   -0.393463
     2  H    0.188561
     3  H    0.188489
     4  H    0.188748
     5  Cl  -0.252104
     6  Br  -0.920232
 Sum of Mulliken charges =  -1.00000

 Dipole moment (field-independent basis, Debye):
    X=              3.5697    Y=              0.0016    Z=              0.0034  Tot=              3.5697
 Quadrupole moment (field-independent basis, Debye-Ang):
   XX=            -72.0182   YY=            -43.1892   ZZ=            -43.1835
   XY=              0.0039   XZ=             -0.0104   YZ=              0.0009

 Normal termination of Gaussian 16 at Tue Jan 22 16:56:32 2019.
