 Gaussian 16, Revision A.03,
 Gaussian 16:  ES64L-G16RevA.03 25-Dec-2016

 -------------------------------------------
 # M062X/6-311G** force nosymm int=ultrafine
 -------------------------------------------

 -----
 Title
 -----
 Symbolic Z-matrix:
 Charge = -1 Multiplicity = 1

                          Input orientation:
 ---------------------------------------------------------------------
 Center     Atomic      Atomic             Coordinates (Angstroms)
 Number     Number       Type             X           Y           Z
 ---------------------------------------------------------------------
      1          6           0        0.929030    0.000150    0.001270
      2          1           0        0.871730   -0.871720    0.625430
      3          1           0        0.871510    0.976570    0.444350
      4          1           0        0.871310   -0.104370   -1.065800
      5         17           0        3.187840   -0.000030   -0.000270
      6         35           0       -1.587190   -0.000010   -0.000130
 ---------------------------------------------------------------------

 SCF Done:  E(RM062X) =  -3074.33835804     A.U. after   14 cycles

 Alpha  occ. eigenvalues -- -485.09453-102.45188 -63.08683 -56.91316 -56.91232
 Alpha  occ. eigenvalues --  -56.91232 -10.46006  -9.59302  -8.77305  -7.31602
 Alpha  occ. eigenvalues --   -7.31271  -7.31271  -6.59655  -6.59314  -6.59314
 Alpha  occ. eigenvalues --   -2.62821  -2.62714  -2.62714  -2.62416  -2.62416
 Alpha  occ. eigenvalues --   -0.70851  -0.64435  -0.59036  -0.37043  -0.37042
 Alpha  occ. eigenvalues --   -0.23885  -0.17984  -0.17984  -0.13788  -0.13787
 Alpha  occ. eigenvalues --   -0.12844
 Alpha virt. eigenvalues --    0.15388   0.22499   0.28788   0.28793   0.46062
 Alpha virt. eigenvalues --    0.47127   0.47127   0.48376   0.50239   0.50239
 Alpha virt. eigenvalues --    0.53888   0.53892   0.65689   0.67481   0.76771

 Mulliken charges:
               1
     1  C   -0.349601
     2  H    0.204500
     3  H    0.204497
     4  H    0.204642
     5  Cl  -0.578582
     6  Br  -0.685457
 Sum of Mulliken charges =  -1.00000

 Dipole moment (field-independent basis, Debye):
    X=             -2.6749    Y=              0.0004    Z=              0.0030  Tot=              2.6749
 Quadrupole moment (field-independent basis, Debye-Ang):
   XX=            -83.1279   YY=            -43.0860   ZZ=            -43.0852
   XY=             -0.0002   XZ=              0.0034   YZ=             -0.0002

 Normal termination of Gaussian 16 at Tue Jan 22 16:53:38 2019.
