 Gaussian 16, Revision A.03,
 Gaussian 16:  ES64L-G16RevA.03 25-Dec-2016

 -------------------------------------------
 # M062X/6-311G** force nosymm int=ultrafine
 -------------------------------------------

 -----
 Title
 -----
 Symbolic Z-matrix:
 Charge = -1 Multiplicity = 1

                          Input orientation:
 ---------------------------------------------------------------------
 Center     Atomic      Atomic             Coordinates (Angstroms)
 Number     Number       Type             X           Y           Z
 ---------------------------------------------------------------------
      1          6           0        0.671110    0.000300    0.001200
      2          1           0        0.847800   -0.862180    0.618860
      3          1           0        0.847560    0.966450    0.439470
      4          1           0        0.848210   -0.103130   -1.054470
      5         17           0        3.233640   -0.000070   -0.000280
      6         35           0       -1.567360   -0.000030   -0.000110
 ---------------------------------------------------------------------

 SCF Done:  E(RM062X) =  -3074.34193263     A.U. after   14 cycles

 Alpha  occ. eigenvalues -- -485.15028-102.39229 -63.14237 -56.96925 -56.96757
 Alpha  occ. eigenvalues --  -56.96757 -10.45469  -9.53421  -8.82875  -7.25591
 Alpha  occ. eigenvalues --   -7.25473  -7.25473  -6.65426  -6.64771  -6.64771
 Alpha  occ. eigenvalues --   -2.68577  -2.68365  -2.68365  -2.67785  -2.67785
 Alpha  occ. eigenvalues --   -0.70429  -0.63733  -0.59895  -0.36614  -0.36612
 Alpha  occ. eigenvalues --   -0.24794  -0.18184  -0.18183  -0.13173  -0.13172
 Alpha  occ. eigenvalues --   -0.12390
 Alpha virt. eigenvalues --    0.15340   0.22998   0.28958   0.28963   0.45156
 Alpha virt. eigenvalues --    0.46410   0.46412   0.49186   0.49188   0.50693
 Alpha virt. eigenvalues --    0.55001   0.55006   0.61929   0.67508   0.76521

 Mulliken charges:
               1
     1  C   -0.351193
     2  H    0.201850
     3  H    0.201811
     4  H    0.201979
     5  Cl  -0.811122
     6  Br  -0.443326
 Sum of Mulliken charges =  -1.00000

 Dipole moment (field-independent basis, Debye):
    X=             -7.9435    Y=              0.0009    Z=              0.0029  Tot=              7.9435
 Quadrupole moment (field-independent basis, Debye-Ang):
   XX=            -91.4866   YY=            -43.0554   ZZ=            -43.0546
   XY=              0.0009   XZ=              0.0046   YZ=             -0.0004

 Normal termination of Gaussian 16 at Tue Jan 22 16:50:02 2019.
