 Gaussian 16, Revision A.03,
 Gaussian 16:  ES64L-G16RevA.03 25-Dec-2016

 -------------------------------------------
 # M062X/6-311G** force nosymm int=ultrafine
 -------------------------------------------

 -----
 Title
 -----
 Symbolic Z-matrix:
 Charge = -1 Multiplicity = 1

                          Input orientation:
 ---------------------------------------------------------------------
 Center     Atomic      Atomic             Coordinates (Angstroms)
 Number     Number       Type             X           Y           Z
 ---------------------------------------------------------------------
      1          6           0        1.261310    0.000150    0.001130
      2          1           0        0.951310   -0.840730    0.603310
      3          1           0        0.951370    0.941910    0.428710
      4          1           0        0.950050   -0.100400   -1.027820
      5         17           0        3.134250   -0.000050   -0.000190
      6         35           0       -1.617010   -0.000010   -0.000140
 ---------------------------------------------------------------------

 SCF Done:  E(RM062X) =  -3074.35460932     A.U. after   14 cycles

 Alpha  occ. eigenvalues -- -485.04279-102.51882 -63.03514 -56.86098 -56.86093
 Alpha  occ. eigenvalues --  -56.86093 -10.44210  -9.66074  -8.72120  -7.38509
 Alpha  occ. eigenvalues --   -7.37967  -7.37967  -6.54281  -6.54239  -6.54239
 Alpha  occ. eigenvalues --   -2.57467  -2.57453  -2.57453  -2.57421  -2.57421
 Alpha  occ. eigenvalues --   -0.79302  -0.62418  -0.55584  -0.36526  -0.36523
 Alpha  occ. eigenvalues --   -0.31492  -0.22645  -0.22644  -0.09561  -0.09560
 Alpha  occ. eigenvalues --   -0.09401
 Alpha virt. eigenvalues --    0.20318   0.23605   0.28878   0.28884   0.43496
 Alpha virt. eigenvalues --    0.46773   0.46776   0.47604   0.47605   0.52700
 Alpha virt. eigenvalues --    0.56354   0.56360   0.62901   0.71963   0.73685

 Mulliken charges:
               1
     1  C   -0.381647
     2  H    0.190374
     3  H    0.190358
     4  H    0.190522
     5  Cl  -0.289001
     6  Br  -0.900606
 Sum of Mulliken charges =  -1.00000

 Dipole moment (field-independent basis, Debye):
    X=              2.8719    Y=              0.0006    Z=              0.0025  Tot=              2.8719
 Quadrupole moment (field-independent basis, Debye-Ang):
   XX=            -72.3861   YY=            -43.1865   ZZ=            -43.1854
   XY=              0.0002   XZ=              0.0016   YZ=             -0.0005

 Normal termination of Gaussian 16 at Tue Jan 22 16:55:29 2019.
