 Gaussian 16, Revision A.03,
 Gaussian 16:  ES64L-G16RevA.03 25-Dec-2016

 -------------------------------------------
 # M062X/6-311G** force nosymm int=ultrafine
 -------------------------------------------

 -----
 Title
 -----
 Symbolic Z-matrix:
 Charge = -1 Multiplicity = 1

                          Input orientation:
 ---------------------------------------------------------------------
 Center     Atomic      Atomic             Coordinates (Angstroms)
 Number     Number       Type             X           Y           Z
 ---------------------------------------------------------------------
      1          6           0        0.799800    0.000170    0.001310
      2          1           0        0.863420   -0.871570    0.625110
      3          1           0        0.863360    0.976230    0.444440
      4          1           0        0.863660   -0.104110   -1.065480
      5         17           0        3.210530   -0.000040   -0.000300
      6         35           0       -1.577290   -0.000020   -0.000120
 ---------------------------------------------------------------------

 SCF Done:  E(RM062X) =  -3074.33787873     A.U. after   14 cycles

 Alpha  occ. eigenvalues -- -485.12290-102.42024 -63.11508 -56.94170 -56.94041
 Alpha  occ. eigenvalues --  -56.94041 -10.45923  -9.56176  -8.80135  -7.28408
 Alpha  occ. eigenvalues --   -7.28188  -7.28188  -6.62589  -6.62085  -6.62085
 Alpha  occ. eigenvalues --   -2.65746  -2.65586  -2.65585  -2.65141  -2.65141
 Alpha  occ. eigenvalues --   -0.69269  -0.64783  -0.59903  -0.36962  -0.36961
 Alpha  occ. eigenvalues --   -0.23232  -0.16251  -0.16251  -0.15248  -0.15247
 Alpha  occ. eigenvalues --   -0.13294
 Alpha virt. eigenvalues --    0.14989   0.22574   0.28837   0.28842   0.46486
 Alpha virt. eigenvalues --    0.46931   0.46932   0.48375   0.50236   0.50238
 Alpha virt. eigenvalues --    0.53935   0.53939   0.64456   0.66497   0.76655

 Mulliken charges:
               1
     1  C   -0.351399
     2  H    0.205193
     3  H    0.205184
     4  H    0.205343
     5  Cl  -0.701183
     6  Br  -0.563138
 Sum of Mulliken charges =  -1.00000

 Dipole moment (field-independent basis, Debye):
    X=             -5.4034    Y=              0.0005    Z=              0.0031  Tot=              5.4034
 Quadrupole moment (field-independent basis, Debye-Ang):
   XX=            -87.6029   YY=            -43.0532   ZZ=            -43.0524
   XY=              0.0003   XZ=              0.0041   YZ=             -0.0002

 Normal termination of Gaussian 16 at Tue Jan 22 16:49:01 2019.
