 Gaussian 16, Revision A.03,
 Gaussian 16:  ES64L-G16RevA.03 25-Dec-2016

 -------------------------------------------
 # M062X/6-311G** force nosymm int=ultrafine
 -------------------------------------------

 -----
 Title
 -----
 Symbolic Z-matrix:
 Charge = -1 Multiplicity = 1

                          Input orientation:
 ---------------------------------------------------------------------
 Center     Atomic      Atomic             Coordinates (Angstroms)
 Number     Number       Type             X           Y           Z
 ---------------------------------------------------------------------
      1          6           0        0.436900    0.000500    0.001350
      2          1           0        0.750540   -0.838190    0.603170
      3          1           0        0.749930    0.941040    0.427230
      4          1           0        0.751530   -0.100940   -1.025550
      5         17           0        3.299690   -0.000120   -0.000370
      6         35           0       -1.557290   -0.000050   -0.000110
 ---------------------------------------------------------------------

 SCF Done:  E(RM062X) =  -3074.35056344     A.U. after   13 cycles

 Alpha  occ. eigenvalues -- -485.18505-102.36365 -63.17734 -57.00447 -57.00238
 Alpha  occ. eigenvalues --  -57.00238 -10.44008  -9.50552  -8.86430  -7.22668
 Alpha  occ. eigenvalues --   -7.22644  -7.22644  -6.69105  -6.68267  -6.68267
 Alpha  occ. eigenvalues --   -2.72259  -2.71971  -2.71971  -2.71229  -2.71229
 Alpha  occ. eigenvalues --   -0.75079  -0.61791  -0.58806  -0.36124  -0.36122
 Alpha  occ. eigenvalues --   -0.29456  -0.20493  -0.20493  -0.10665  -0.10665
 Alpha  occ. eigenvalues --   -0.10523
 Alpha virt. eigenvalues --    0.17767   0.23961   0.28917   0.28926   0.44188
 Alpha virt. eigenvalues --    0.45985   0.45987   0.47160   0.47162   0.54987
 Alpha virt. eigenvalues --    0.56694   0.56703   0.57038   0.68995   0.76491

 Mulliken charges:
               1
     1  C   -0.396892
     2  H    0.194313
     3  H    0.194243
     4  H    0.194481
     5  Cl  -0.919189
     6  Br  -0.266957
 Sum of Mulliken charges =  -1.00000

 Dipole moment (field-independent basis, Debye):
    X=            -11.1420    Y=              0.0012    Z=              0.0032  Tot=             11.1420
 Quadrupole moment (field-independent basis, Debye-Ang):
   XX=            -96.0660   YY=            -43.0083   ZZ=            -43.0079
   XY=              0.0018   XZ=              0.0065   YZ=             -0.0002

 Normal termination of Gaussian 16 at Tue Jan 22 16:51:41 2019.
