 Gaussian 16, Revision A.03,
 Gaussian 16:  ES64L-G16RevA.03 25-Dec-2016

 -------------------------------------------
 # M062X/6-311G** force nosymm int=ultrafine
 -------------------------------------------

 -----
 Title
 -----
 Symbolic Z-matrix:
 Charge = -1 Multiplicity = 1

                          Input orientation:
 ---------------------------------------------------------------------
 Center     Atomic      Atomic             Coordinates (Angstroms)
 Number     Number       Type             X           Y           Z
 ---------------------------------------------------------------------
      1          6           0        1.316450    0.000270    0.001290
      2          1           0        1.002310   -0.835100    0.599510
      3          1           0        1.002560    0.935800    0.426240
      4          1           0        1.000690   -0.099440   -1.020840
      5         17           0        3.148430   -0.000070   -0.000220
      6         35           0       -1.633630   -0.000030   -0.000160
 ---------------------------------------------------------------------

 SCF Done:  E(RM062X) =  -3074.35596399     A.U. after   14 cycles

 Alpha  occ. eigenvalues -- -485.03975-102.52339 -63.03204 -56.85787 -56.85785
 Alpha  occ. eigenvalues --  -56.85784 -10.43923  -9.66576  -8.71804  -7.39019
 Alpha  occ. eigenvalues --   -7.38463  -7.38463  -6.53957  -6.53927  -6.53927
 Alpha  occ. eigenvalues --   -2.57144  -2.57134  -2.57134  -2.57112  -2.57111
 Alpha  occ. eigenvalues --   -0.80478  -0.62369  -0.55320  -0.36997  -0.36993
 Alpha  occ. eigenvalues --   -0.32333  -0.22886  -0.22885  -0.09259  -0.09258
 Alpha  occ. eigenvalues --   -0.09161
 Alpha virt. eigenvalues --    0.21013   0.23694   0.28761   0.28768   0.43488
 Alpha virt. eigenvalues --    0.46752   0.46754   0.47319   0.47321   0.53216
 Alpha virt. eigenvalues --    0.56554   0.56560   0.61409   0.72492   0.74010

 Mulliken charges:
               1
     1  C   -0.388041
     2  H    0.188656
     3  H    0.188627
     4  H    0.188831
     5  Cl  -0.264471
     6  Br  -0.913602
 Sum of Mulliken charges =  -1.00000

 Dipole moment (field-independent basis, Debye):
    X=              3.3120    Y=              0.0009    Z=              0.0028  Tot=              3.3120
 Quadrupole moment (field-independent basis, Debye-Ang):
   XX=            -71.7988   YY=            -43.1509   ZZ=            -43.1494
   XY=              0.0005   XZ=              0.0022   YZ=             -0.0006

 Normal termination of Gaussian 16 at Tue Jan 22 16:55:53 2019.
