 Gaussian 16, Revision A.03,
 Gaussian 16:  ES64L-G16RevA.03 25-Dec-2016

 -------------------------------------------
 # M062X/6-311G** force nosymm int=ultrafine
 -------------------------------------------

 -----
 Title
 -----
 Symbolic Z-matrix:
 Charge = -1 Multiplicity = 1

                          Input orientation:
 ---------------------------------------------------------------------
 Center     Atomic      Atomic             Coordinates (Angstroms)
 Number     Number       Type             X           Y           Z
 ---------------------------------------------------------------------
      1          6           0        1.330980    0.000330    0.001390
      2          1           0        0.996240   -0.837010    0.601030
      3          1           0        0.996570    0.938070    0.427420
      4          1           0        0.995010   -0.099580   -1.023110
      5         17           0        3.156890   -0.000080   -0.000240
      6         35           0       -1.639360   -0.000040   -0.000170
 ---------------------------------------------------------------------

 SCF Done:  E(RM062X) =  -3074.35638839     A.U. after   13 cycles

 Alpha  occ. eigenvalues -- -485.03939-102.52543 -63.03166 -56.85749 -56.85747
 Alpha  occ. eigenvalues --  -56.85747 -10.44066  -9.66775  -8.71765  -7.39223
 Alpha  occ. eigenvalues --   -7.38661  -7.38661  -6.53917  -6.53889  -6.53889
 Alpha  occ. eigenvalues --   -2.57104  -2.57095  -2.57094  -2.57074  -2.57074
 Alpha  occ. eigenvalues --   -0.80613  -0.62187  -0.55277  -0.36681  -0.36677
 Alpha  occ. eigenvalues --   -0.32640  -0.22946  -0.22945  -0.09219  -0.09218
 Alpha  occ. eigenvalues --   -0.09133
 Alpha virt. eigenvalues --    0.20990   0.23730   0.28695   0.28703   0.43515
 Alpha virt. eigenvalues --    0.46598   0.46599   0.47303   0.47305   0.53309
 Alpha virt. eigenvalues --    0.56588   0.56595   0.61057   0.72156   0.74100

 Mulliken charges:
               1
     1  C   -0.395705
     2  H    0.188732
     3  H    0.188695
     4  H    0.188911
     5  Cl  -0.255364
     6  Br  -0.915269
 Sum of Mulliken charges =  -1.00000

 Dipole moment (field-independent basis, Debye):
    X=              3.4049    Y=              0.0010    Z=              0.0029  Tot=              3.4049
 Quadrupole moment (field-independent basis, Debye-Ang):
   XX=            -71.6247   YY=            -43.1833   ZZ=            -43.1816
   XY=              0.0004   XZ=              0.0014   YZ=             -0.0005

 Normal termination of Gaussian 16 at Tue Jan 22 16:56:00 2019.
