 Gaussian 16, Revision A.03,
 Gaussian 16:  ES64L-G16RevA.03 25-Dec-2016

 -------------------------------------------
 # M062X/6-311G** force nosymm int=ultrafine
 -------------------------------------------

 -----
 Title
 -----
 Symbolic Z-matrix:
 Charge = -1 Multiplicity = 1

                          Input orientation:
 ---------------------------------------------------------------------
 Center     Atomic      Atomic             Coordinates (Angstroms)
 Number     Number       Type             X           Y           Z
 ---------------------------------------------------------------------
      1          6           0        0.954900    0.000160    0.001250
      2          1           0        0.873520   -0.870570    0.624670
      3          1           0        0.873320    0.975360    0.443710
      4          1           0        0.873100   -0.104300   -1.064450
      5         17           0        3.183440   -0.000040   -0.000260
      6         35           0       -1.589240   -0.000020   -0.000130
 ---------------------------------------------------------------------

 SCF Done:  E(RM062X) =  -3074.33905177     A.U. after   14 cycles

 Alpha  occ. eigenvalues -- -485.08899-102.45832 -63.08131 -56.90758 -56.90682
 Alpha  occ. eigenvalues --  -56.90682 -10.45983  -9.59939  -8.76752  -7.32253
 Alpha  occ. eigenvalues --   -7.31901  -7.31901  -6.59080  -6.58774  -6.58773
 Alpha  occ. eigenvalues --   -2.62249  -2.62152  -2.62152  -2.61884  -2.61884
 Alpha  occ. eigenvalues --   -0.71394  -0.64284  -0.58773  -0.37035  -0.37033
 Alpha  occ. eigenvalues --   -0.24274  -0.18482  -0.18481  -0.13357  -0.13356
 Alpha  occ. eigenvalues --   -0.12594
 Alpha virt. eigenvalues --    0.15557   0.22529   0.28786   0.28791   0.45696
 Alpha virt. eigenvalues --    0.47101   0.47101   0.48726   0.50084   0.50085
 Alpha virt. eigenvalues --    0.54039   0.54043   0.65832   0.67842   0.76675

 Mulliken charges:
               1
     1  C   -0.348472
     2  H    0.203989
     3  H    0.203985
     4  H    0.204129
     5  Cl  -0.553924
     6  Br  -0.709707
 Sum of Mulliken charges =  -1.00000

 Dipole moment (field-independent basis, Debye):
    X=             -2.1306    Y=              0.0005    Z=              0.0029  Tot=              2.1306
 Quadrupole moment (field-independent basis, Debye-Ang):
   XX=            -82.2153   YY=            -43.0972   ZZ=            -43.0964
   XY=             -0.0001   XZ=              0.0030   YZ=             -0.0002

 Normal termination of Gaussian 16 at Tue Jan 22 16:53:47 2019.
