 Gaussian 16, Revision A.03,
 Gaussian 16:  ES64L-G16RevA.03 25-Dec-2016

 -------------------------------------------
 # M062X/6-311G** force nosymm int=ultrafine
 -------------------------------------------

 -----
 Title
 -----
 Symbolic Z-matrix:
 Charge = -1 Multiplicity = 1

                          Input orientation:
 ---------------------------------------------------------------------
 Center     Atomic      Atomic             Coordinates (Angstroms)
 Number     Number       Type             X           Y           Z
 ---------------------------------------------------------------------
      1          6           0        0.620080    0.000340    0.001180
      2          1           0        0.834890   -0.857120    0.615450
      3          1           0        0.834730    0.961000    0.436880
      4          1           0        0.835620   -0.102590   -1.048390
      5         17           0        3.242990   -0.000080   -0.000280
      6         35           0       -1.563250   -0.000030   -0.000110
 ---------------------------------------------------------------------

 SCF Done:  E(RM062X) =  -3074.34424429     A.U. after   14 cycles

 Alpha  occ. eigenvalues -- -485.15970-102.38369 -63.15179 -56.97875 -56.97694
 Alpha  occ. eigenvalues --  -56.97694 -10.45172  -9.52567  -8.83825  -7.24719
 Alpha  occ. eigenvalues --   -7.24632  -7.24632  -6.66409  -6.65703  -6.65703
 Alpha  occ. eigenvalues --   -2.69558  -2.69328  -2.69328  -2.68702  -2.68702
 Alpha  occ. eigenvalues --   -0.71316  -0.63227  -0.59686  -0.36408  -0.36406
 Alpha  occ. eigenvalues --   -0.25770  -0.18866  -0.18866  -0.12462  -0.12462
 Alpha  occ. eigenvalues --   -0.11907
 Alpha virt. eigenvalues --    0.15719   0.23223   0.29013   0.29019   0.44767
 Alpha virt. eigenvalues --    0.46249   0.46251   0.48703   0.48705   0.51623
 Alpha virt. eigenvalues --    0.55451   0.55457   0.60861   0.68069   0.76517

 Mulliken charges:
               1
     1  C   -0.356340
     2  H    0.199868
     3  H    0.199826
     4  H    0.200007
     5  Cl  -0.844074
     6  Br  -0.399287
 Sum of Mulliken charges =  -1.00000

 Dipole moment (field-independent basis, Debye):
    X=             -8.7965    Y=              0.0009    Z=              0.0029  Tot=              8.7965
 Quadrupole moment (field-independent basis, Debye-Ang):
   XX=            -92.6474   YY=            -43.0569   ZZ=            -43.0561
   XY=              0.0013   XZ=              0.0045   YZ=             -0.0004

 Normal termination of Gaussian 16 at Tue Jan 22 16:50:22 2019.
