 Gaussian 16, Revision A.03,
 Gaussian 16:  ES64L-G16RevA.03 25-Dec-2016

 -------------------------------------------
 # M062X/6-311G** force nosymm int=ultrafine
 -------------------------------------------

 -----
 Title
 -----
 Symbolic Z-matrix:
 Charge = -1 Multiplicity = 1

                          Input orientation:
 ---------------------------------------------------------------------
 Center     Atomic      Atomic             Coordinates (Angstroms)
 Number     Number       Type             X           Y           Z
 ---------------------------------------------------------------------
      1          6           0        1.484210    0.007160    0.006260
      2          1           0        1.142080   -0.816230    0.620120
      3          1           0        1.149450    0.952150    0.415600
      4          1           0        1.139450   -0.109420   -1.013050
      5         17           0        3.312930   -0.000730   -0.000180
      6         35           0       -1.737460   -0.001110   -0.001160
 ---------------------------------------------------------------------

 SCF Done:  E(RM062X) =  -3074.35870267     A.U. after   13 cycles

 Alpha  occ. eigenvalues -- -485.03780-102.53551 -63.02988 -56.85576 -56.85570
 Alpha  occ. eigenvalues --  -56.85570 -10.45047  -9.67753  -8.71571  -7.40213
 Alpha  occ. eigenvalues --   -7.39634  -7.39634  -6.53726  -6.53693  -6.53693
 Alpha  occ. eigenvalues --   -2.56913  -2.56902  -2.56902  -2.56874  -2.56874
 Alpha  occ. eigenvalues --   -0.81425  -0.62906  -0.55063  -0.37460  -0.37455
 Alpha  occ. eigenvalues --   -0.33466  -0.23782  -0.23781  -0.09034  -0.08943
 Alpha  occ. eigenvalues --   -0.08942
 Alpha virt. eigenvalues --    0.19719   0.23352   0.28044   0.28089   0.42507
 Alpha virt. eigenvalues --    0.45909   0.45913   0.46588   0.46592   0.54530
 Alpha virt. eigenvalues --    0.56635   0.56658   0.57782   0.70970   0.75112

 Mulliken charges:
               1
     1  C   -0.394677
     2  H    0.189102
     3  H    0.188237
     4  H    0.189458
     5  Cl  -0.239241
     6  Br  -0.932879
 Sum of Mulliken charges =  -1.00000

 Dipole moment (field-independent basis, Debye):
    X=              4.0591    Y=              0.0142    Z=              0.0125  Tot=              4.0591
 Quadrupole moment (field-independent basis, Debye-Ang):
   XX=            -73.0556   YY=            -43.1932   ZZ=            -43.1916
   XY=              0.0054   XZ=              0.0001   YZ=             -0.0008

 Normal termination of Gaussian 16 at Tue Jan 22 16:57:57 2019.
