 Gaussian 16, Revision A.03,
 Gaussian 16:  ES64L-G16RevA.03 25-Dec-2016

 -------------------------------------------
 # M062X/6-311G** force nosymm int=ultrafine
 -------------------------------------------

 -----
 Title
 -----
 Symbolic Z-matrix:
 Charge = -1 Multiplicity = 1

                          Input orientation:
 ---------------------------------------------------------------------
 Center     Atomic      Atomic             Coordinates (Angstroms)
 Number     Number       Type             X           Y           Z
 ---------------------------------------------------------------------
      1          6           0        1.400820    0.001170    0.002170
      2          1           0        1.064600   -0.833830    0.602190
      3          1           0        1.065750    0.938290    0.426310
      4          1           0        1.062680   -0.100140   -1.020780
      5         17           0        3.230800   -0.000150   -0.000130
      6         35           0       -1.685350   -0.000170   -0.000370
 ---------------------------------------------------------------------

 SCF Done:  E(RM062X) =  -3074.35805861     A.U. after   13 cycles

 Alpha  occ. eigenvalues -- -485.03887-102.53020 -63.03103 -56.85689 -56.85685
 Alpha  occ. eigenvalues --  -56.85685 -10.44537  -9.67234  -8.71693  -7.39687
 Alpha  occ. eigenvalues --   -7.39118  -7.39118  -6.53846  -6.53816  -6.53816
 Alpha  occ. eigenvalues --   -2.57034  -2.57024  -2.57024  -2.56999  -2.56999
 Alpha  occ. eigenvalues --   -0.80945  -0.62534  -0.55203  -0.37055  -0.37048
 Alpha  occ. eigenvalues --   -0.32981  -0.23350  -0.23349  -0.09121  -0.09102
 Alpha  occ. eigenvalues --   -0.09101
 Alpha virt. eigenvalues --    0.20319   0.23568   0.28412   0.28421   0.43018
 Alpha virt. eigenvalues --    0.46272   0.46275   0.46969   0.46972   0.53923
 Alpha virt. eigenvalues --    0.56609   0.56618   0.59445   0.71645   0.74515

 Mulliken charges:
               1
     1  C   -0.393147
     2  H    0.188568
     3  H    0.188421
     4  H    0.188760
     5  Cl  -0.248907
     6  Br  -0.923695
 Sum of Mulliken charges =  -1.00000

 Dipole moment (field-independent basis, Debye):
    X=              3.6957    Y=              0.0025    Z=              0.0046  Tot=              3.6957
 Quadrupole moment (field-independent basis, Debye-Ang):
   XX=            -72.2995   YY=            -43.1925   ZZ=            -43.1905
   XY=              0.0009   XZ=              0.0010   YZ=             -0.0003

 Normal termination of Gaussian 16 at Tue Jan 22 16:56:55 2019.
