 Gaussian 16, Revision A.03,
 Gaussian 16:  ES64L-G16RevA.03 25-Dec-2016

 -------------------------------------------
 # M062X/6-311G** force nosymm int=ultrafine
 -------------------------------------------

 -----
 Title
 -----
 Symbolic Z-matrix:
 Charge = -1 Multiplicity = 1

                          Input orientation:
 ---------------------------------------------------------------------
 Center     Atomic      Atomic             Coordinates (Angstroms)
 Number     Number       Type             X           Y           Z
 ---------------------------------------------------------------------
      1          6           0        0.519730    0.000400    0.001180
      2          1           0        0.796990   -0.846770    0.608330
      3          1           0        0.796810    0.949690    0.431630
      4          1           0        0.798210   -0.101490   -1.035740
      5         17           0        3.263410   -0.000100   -0.000300
      6         35           0       -1.555600   -0.000030   -0.000100
 ---------------------------------------------------------------------

 SCF Done:  E(RM062X) =  -3074.34849116     A.U. after   14 cycles

 Alpha  occ. eigenvalues -- -485.17510-102.37082 -63.16725 -56.99433 -56.99233
 Alpha  occ. eigenvalues --  -56.99233 -10.44481  -9.51282  -8.85394  -7.23408
 Alpha  occ. eigenvalues --   -7.23364  -7.23364  -6.68034  -6.67246  -6.67246
 Alpha  occ. eigenvalues --   -2.71185  -2.70921  -2.70921  -2.70222  -2.70222
 Alpha  occ. eigenvalues --   -0.73312  -0.62349  -0.59161  -0.36070  -0.36068
 Alpha  occ. eigenvalues --   -0.27833  -0.19902  -0.19901  -0.11347  -0.11346
 Alpha  occ. eigenvalues --   -0.11053
 Alpha virt. eigenvalues --    0.16815   0.23667   0.29052   0.29059   0.44323
 Alpha virt. eigenvalues --    0.46079   0.46082   0.47809   0.47811   0.53391
 Alpha virt. eigenvalues --    0.56218   0.56225   0.58775   0.68967   0.76555

 Mulliken charges:
               1
     1  C   -0.377452
     2  H    0.196644
     3  H    0.196601
     4  H    0.196805
     5  Cl  -0.891628
     6  Br  -0.320970
 Sum of Mulliken charges =  -1.00000

 Dipole moment (field-independent basis, Debye):
    X=            -10.1879    Y=              0.0010    Z=              0.0029  Tot=             10.1879
 Quadrupole moment (field-independent basis, Debye-Ang):
   XX=            -94.4211   YY=            -43.0428   ZZ=            -43.0422
   XY=              0.0018   XZ=              0.0047   YZ=             -0.0003

 Normal termination of Gaussian 16 at Tue Jan 22 16:51:02 2019.
