 Gaussian 16, Revision A.03,
 Gaussian 16:  ES64L-G16RevA.03 25-Dec-2016

 -------------------------------------------
 # M062X/6-311G** force nosymm int=ultrafine
 -------------------------------------------

 -----
 Title
 -----
 Symbolic Z-matrix:
 Charge = -1 Multiplicity = 1

                          Input orientation:
 ---------------------------------------------------------------------
 Center     Atomic      Atomic             Coordinates (Angstroms)
 Number     Number       Type             X           Y           Z
 ---------------------------------------------------------------------
      1          6           0        0.399310    0.000650    0.000360
      2          1           0        0.722620   -0.835150    0.604670
      3          1           0        0.718900    0.942120    0.421410
      4          1           0        0.727790   -0.105260   -1.026170
      5         17           0        3.394310   -0.000130   -0.000430
      6         35           0       -1.592440   -0.000060    0.000140
 ---------------------------------------------------------------------

 SCF Done:  E(RM062X) =  -3074.35164273     A.U. after   13 cycles

 Alpha  occ. eigenvalues -- -485.19104-102.36203 -63.18327 -57.01045 -57.00829
 Alpha  occ. eigenvalues --  -57.00829 -10.44517  -9.50365  -8.87021  -7.22482
 Alpha  occ. eigenvalues --   -7.22459  -7.22459  -6.69709  -6.68850  -6.68850
 Alpha  occ. eigenvalues --   -2.72863  -2.72567  -2.72567  -2.71805  -2.71805
 Alpha  occ. eigenvalues --   -0.75567  -0.61889  -0.58818  -0.36460  -0.36360
 Alpha  occ. eigenvalues --   -0.29997  -0.20966  -0.20962  -0.10428  -0.10427
 Alpha  occ. eigenvalues --   -0.10403
 Alpha virt. eigenvalues --    0.17129   0.23792   0.28574   0.28585   0.43672
 Alpha virt. eigenvalues --    0.45551   0.45590   0.46757   0.46759   0.55715
 Alpha virt. eigenvalues --    0.56791   0.56805   0.56877   0.67090   0.75977

 Mulliken charges:
               1
     1  C   -0.397455
     2  H    0.193851
     3  H    0.193685
     4  H    0.193980
     5  Cl  -0.932576
     6  Br  -0.251485
 Sum of Mulliken charges =  -1.00000

 Dipole moment (field-independent basis, Debye):
    X=            -11.7941    Y=              0.0014    Z=              0.0021  Tot=             11.7941
 Quadrupole moment (field-independent basis, Debye-Ang):
   XX=            -99.0365   YY=            -43.0163   ZZ=            -43.0205
   XY=             -0.0032   XZ=             -0.0034   YZ=              0.0002

 Normal termination of Gaussian 16 at Tue Jan 22 16:52:46 2019.
