 Gaussian 16, Revision A.03,
 Gaussian 16:  ES64L-G16RevA.03 25-Dec-2016

 -------------------------------------------
 # M062X/6-311G** force nosymm int=ultrafine
 -------------------------------------------

 -----
 Title
 -----
 Symbolic Z-matrix:
 Charge = -1 Multiplicity = 1

                          Input orientation:
 ---------------------------------------------------------------------
 Center     Atomic      Atomic             Coordinates (Angstroms)
 Number     Number       Type             X           Y           Z
 ---------------------------------------------------------------------
      1          6           0        0.544490    0.000390    0.001180
      2          1           0        0.807860   -0.849340    0.610080
      3          1           0        0.807720    0.952510    0.432920
      4          1           0        0.808960   -0.101760   -1.038900
      5         17           0        3.257840   -0.000100   -0.000290
      6         35           0       -1.557310   -0.000030   -0.000100
 ---------------------------------------------------------------------

 SCF Done:  E(RM062X) =  -3074.34756676     A.U. after   14 cycles

 Alpha  occ. eigenvalues -- -485.17170-102.37354 -63.16382 -56.99088 -56.98892
 Alpha  occ. eigenvalues --  -56.98892 -10.44658  -9.51555  -8.85044  -7.23687
 Alpha  occ. eigenvalues --   -7.23634  -7.23633  -6.67672  -6.66902  -6.66901
 Alpha  occ. eigenvalues --   -2.70822  -2.70565  -2.70565  -2.69883  -2.69882
 Alpha  occ. eigenvalues --   -0.72798  -0.62551  -0.59292  -0.36132  -0.36130
 Alpha  occ. eigenvalues --   -0.27322  -0.19685  -0.19684  -0.11590  -0.11589
 Alpha  occ. eigenvalues --   -0.11244
 Alpha virt. eigenvalues --    0.16507   0.23559   0.29055   0.29062   0.44392
 Alpha virt. eigenvalues --    0.46105   0.46108   0.48019   0.48021   0.52960
 Alpha virt. eigenvalues --    0.56046   0.56053   0.59288   0.68786   0.76546

 Mulliken charges:
               1
     1  C   -0.371360
     2  H    0.197385
     3  H    0.197341
     4  H    0.197536
     5  Cl  -0.881709
     6  Br  -0.339194
 Sum of Mulliken charges =  -1.00000

 Dipole moment (field-independent basis, Debye):
    X=             -9.8775    Y=              0.0010    Z=              0.0028  Tot=              9.8775
 Quadrupole moment (field-independent basis, Debye-Ang):
   XX=            -94.0266   YY=            -43.0489   ZZ=            -43.0483
   XY=              0.0018   XZ=              0.0046   YZ=             -0.0003

 Normal termination of Gaussian 16 at Tue Jan 22 16:50:53 2019.
