 Gaussian 16, Revision A.03,
 Gaussian 16:  ES64L-G16RevA.03 25-Dec-2016

 -------------------------------------------
 # M062X/6-311G** force nosymm int=ultrafine
 -------------------------------------------

 -----
 Title
 -----
 Symbolic Z-matrix:
 Charge = -1 Multiplicity = 1

                          Input orientation:
 ---------------------------------------------------------------------
 Center     Atomic      Atomic             Coordinates (Angstroms)
 Number     Number       Type             X           Y           Z
 ---------------------------------------------------------------------
      1          6           0        0.451350    0.000440    0.001290
      2          1           0        0.762610   -0.839930    0.603990
      3          1           0        0.762090    0.942540    0.428180
      4          1           0        0.763820   -0.100940   -1.027470
      5         17           0        3.287270   -0.000110   -0.000340
      6         35           0       -1.554450   -0.000040   -0.000110
 ---------------------------------------------------------------------

 SCF Done:  E(RM062X) =  -3074.35026921     A.U. after   13 cycles

 Alpha  occ. eigenvalues -- -485.18344-102.36466 -63.17571 -57.00283 -57.00075
 Alpha  occ. eigenvalues --  -57.00075 -10.44053  -9.50658  -8.86263  -7.22774
 Alpha  occ. eigenvalues --   -7.22748  -7.22748  -6.68932  -6.68102  -6.68102
 Alpha  occ. eigenvalues --   -2.72086  -2.71801  -2.71801  -2.71066  -2.71066
 Alpha  occ. eigenvalues --   -0.74765  -0.61850  -0.58839  -0.36014  -0.36011
 Alpha  occ. eigenvalues --   -0.29213  -0.20391  -0.20391  -0.10772  -0.10771
 Alpha  occ. eigenvalues --   -0.10599
 Alpha virt. eigenvalues --    0.17660   0.23937   0.28967   0.28975   0.44235
 Alpha virt. eigenvalues --    0.46014   0.46017   0.47271   0.47273   0.54638
 Alpha virt. eigenvalues --    0.56628   0.56637   0.57347   0.69151   0.76499

 Mulliken charges:
               1
     1  C   -0.395348
     2  H    0.194789
     3  H    0.194730
     4  H    0.194964
     5  Cl  -0.914582
     6  Br  -0.274554
 Sum of Mulliken charges =  -1.00000

 Dipole moment (field-independent basis, Debye):
    X=            -10.9703    Y=              0.0011    Z=              0.0031  Tot=             10.9703
 Quadrupole moment (field-independent basis, Debye-Ang):
   XX=            -95.6048   YY=            -43.0189   ZZ=            -43.0185
   XY=              0.0016   XZ=              0.0056   YZ=             -0.0002

 Normal termination of Gaussian 16 at Tue Jan 22 16:51:32 2019.
