 Gaussian 16, Revision A.03,
 Gaussian 16:  ES64L-G16RevA.03 25-Dec-2016

 -------------------------------------------
 # M062X/6-311G** force nosymm int=ultrafine
 -------------------------------------------

 -----
 Title
 -----
 Symbolic Z-matrix:
 Charge = -1 Multiplicity = 1

                          Input orientation:
 ---------------------------------------------------------------------
 Center     Atomic      Atomic             Coordinates (Angstroms)
 Number     Number       Type             X           Y           Z
 ---------------------------------------------------------------------
      1          6           0        0.645540    0.000320    0.001190
      2          1           0        0.841920   -0.859690    0.617190
      3          1           0        0.841720    0.963770    0.438190
      4          1           0        0.842500   -0.102860   -1.051480
      5         17           0        3.238290   -0.000080   -0.000280
      6         35           0       -1.565310   -0.000030   -0.000110
 ---------------------------------------------------------------------

 SCF Done:  E(RM062X) =  -3074.34307612     A.U. after   14 cycles

 Alpha  occ. eigenvalues -- -485.15514-102.38779 -63.14722 -56.97414 -56.97239
 Alpha  occ. eigenvalues --  -56.97239 -10.45327  -9.52975  -8.83364  -7.25135
 Alpha  occ. eigenvalues --   -7.25033  -7.25033  -6.65932  -6.65251  -6.65250
 Alpha  occ. eigenvalues --   -2.69082  -2.68860  -2.68860  -2.68257  -2.68257
 Alpha  occ. eigenvalues --   -0.70858  -0.63476  -0.59800  -0.36512  -0.36509
 Alpha  occ. eigenvalues --   -0.25271  -0.18538  -0.18538  -0.12804  -0.12803
 Alpha  occ. eigenvalues --   -0.12148
 Alpha virt. eigenvalues --    0.15513   0.23110   0.28986   0.28993   0.44948
 Alpha virt. eigenvalues --    0.46323   0.46325   0.48943   0.48946   0.51161
 Alpha virt. eigenvalues --    0.55230   0.55236   0.61394   0.67792   0.76515

 Mulliken charges:
               1
     1  C   -0.353212
     2  H    0.200839
     3  H    0.200799
     4  H    0.200974
     5  Cl  -0.828484
     6  Br  -0.420915
 Sum of Mulliken charges =  -1.00000

 Dipole moment (field-independent basis, Debye):
    X=             -8.3839    Y=              0.0009    Z=              0.0029  Tot=              8.3839
 Quadrupole moment (field-independent basis, Debye-Ang):
   XX=            -92.0959   YY=            -43.0567   ZZ=            -43.0558
   XY=              0.0012   XZ=              0.0046   YZ=             -0.0004

 Normal termination of Gaussian 16 at Tue Jan 22 16:50:12 2019.
