 Gaussian 16, Revision A.03,
 Gaussian 16:  ES64L-G16RevA.03 25-Dec-2016

 -------------------------------------------
 # M062X/6-311G** force nosymm int=ultrafine
 -------------------------------------------

 -----
 Title
 -----
 Symbolic Z-matrix:
 Charge = -1 Multiplicity = 1

                          Input orientation:
 ---------------------------------------------------------------------
 Center     Atomic      Atomic             Coordinates (Angstroms)
 Number     Number       Type             X           Y           Z
 ---------------------------------------------------------------------
      1          6           0        0.696750    0.000280    0.001220
      2          1           0        0.852540   -0.864550    0.620460
      3          1           0        0.852290    0.968980    0.440690
      4          1           0        0.852810   -0.103400   -1.057300
      5         17           0        3.229010   -0.000070   -0.000280
      6         35           0       -1.569390   -0.000030   -0.000110
 ---------------------------------------------------------------------

 SCF Done:  E(RM062X) =  -3074.34085347     A.U. after   14 cycles

 Alpha  occ. eigenvalues -- -485.14515-102.39722 -63.13725 -56.96408 -56.96247
 Alpha  occ. eigenvalues --  -56.96247 -10.45595  -9.53908  -8.82360  -7.26089
 Alpha  occ. eigenvalues --   -7.25952  -7.25952  -6.64893  -6.64266  -6.64266
 Alpha  occ. eigenvalues --   -2.68045  -2.67842  -2.67842  -2.67287  -2.67287
 Alpha  occ. eigenvalues --   -0.70039  -0.63994  -0.59965  -0.36709  -0.36707
 Alpha  occ. eigenvalues --   -0.24353  -0.17806  -0.17805  -0.13568  -0.13568
 Alpha  occ. eigenvalues --   -0.12628
 Alpha virt. eigenvalues --    0.15202   0.22892   0.28928   0.28934   0.45388
 Alpha virt. eigenvalues --    0.46509   0.46510   0.49427   0.49429   0.50219
 Alpha virt. eigenvalues --    0.54766   0.54771   0.62463   0.67231   0.76535

 Mulliken charges:
               1
     1  C   -0.350222
     2  H    0.202836
     3  H    0.202800
     4  H    0.202962
     5  Cl  -0.791929
     6  Br  -0.466446
 Sum of Mulliken charges =  -1.00000

 Dipole moment (field-independent basis, Debye):
    X=             -7.4757    Y=              0.0008    Z=              0.0029  Tot=              7.4757
 Quadrupole moment (field-independent basis, Debye-Ang):
   XX=            -90.8150   YY=            -43.0536   ZZ=            -43.0529
   XY=              0.0008   XZ=              0.0046   YZ=             -0.0004

 Normal termination of Gaussian 16 at Tue Jan 22 16:49:51 2019.
