 Gaussian 16, Revision A.03,
 Gaussian 16:  ES64L-G16RevA.03 25-Dec-2016

 -------------------------------------------
 # M062X/6-311G** force nosymm int=ultrafine
 -------------------------------------------

 -----
 Title
 -----
 Symbolic Z-matrix:
 Charge = -1 Multiplicity = 1

                          Input orientation:
 ---------------------------------------------------------------------
 Center     Atomic      Atomic             Coordinates (Angstroms)
 Number     Number       Type             X           Y           Z
 ---------------------------------------------------------------------
      1          6           0        0.472160    0.000410    0.001240
      2          1           0        0.773300   -0.841950    0.605160
      3          1           0        0.772930    0.944530    0.429220
      4          1           0        0.774600   -0.101050   -1.029840
      5         17           0        3.277400   -0.000110   -0.000320
      6         35           0       -1.553650   -0.000040   -0.000100
 ---------------------------------------------------------------------

 SCF Done:  E(RM062X) =  -3074.34984953     A.U. after   13 cycles

 Alpha  occ. eigenvalues -- -485.18100-102.36633 -63.17322 -57.00034 -56.99828
 Alpha  occ. eigenvalues --  -56.99828 -10.44160  -9.50827  -8.86007  -7.22946
 Alpha  occ. eigenvalues --   -7.22916  -7.22916  -6.68668  -6.67850  -6.67850
 Alpha  occ. eigenvalues --   -2.71821  -2.71543  -2.71543  -2.70817  -2.70817
 Alpha  occ. eigenvalues --   -0.74326  -0.61990  -0.58927  -0.36018  -0.36015
 Alpha  occ. eigenvalues --   -0.28799  -0.20253  -0.20252  -0.10932  -0.10932
 Alpha  occ. eigenvalues --   -0.10724
 Alpha virt. eigenvalues --    0.17427   0.23863   0.29008   0.29016   0.44255
 Alpha virt. eigenvalues --    0.46043   0.46046   0.47431   0.47432   0.54237
 Alpha virt. eigenvalues --    0.56514   0.56522   0.57789   0.69170   0.76543

 Mulliken charges:
               1
     1  C   -0.389783
     2  H    0.195304
     3  H    0.195254
     4  H    0.195479
     5  Cl  -0.908147
     6  Br  -0.288108
 Sum of Mulliken charges =  -1.00000

 Dipole moment (field-independent basis, Debye):
    X=            -10.7378    Y=              0.0011    Z=              0.0030  Tot=             10.7378
 Quadrupole moment (field-independent basis, Debye-Ang):
   XX=            -95.1929   YY=            -43.0259   ZZ=            -43.0255
   XY=              0.0017   XZ=              0.0051   YZ=             -0.0002

 Normal termination of Gaussian 16 at Tue Jan 22 16:51:22 2019.
