 Gaussian 16, Revision A.03,
 Gaussian 16:  ES64L-G16RevA.03 25-Dec-2016

 -------------------------------------------
 # M062X/6-311G** force nosymm int=ultrafine
 -------------------------------------------

 -----
 Title
 -----
 Symbolic Z-matrix:
 Charge = -1 Multiplicity = 1

                          Input orientation:
 ---------------------------------------------------------------------
 Center     Atomic      Atomic             Coordinates (Angstroms)
 Number     Number       Type             X           Y           Z
 ---------------------------------------------------------------------
      1          6           0        0.594730    0.000360    0.001170
      2          1           0        0.826820   -0.854540    0.613680
      3          1           0        0.826690    0.958190    0.435550
      4          1           0        0.827680   -0.102320   -1.045250
      5         17           0        3.247770   -0.000090   -0.000280
      6         35           0       -1.561210   -0.000030   -0.000100
 ---------------------------------------------------------------------

 SCF Done:  E(RM062X) =  -3074.34540412     A.U. after   14 cycles

 Alpha  occ. eigenvalues -- -485.16399-102.37996 -63.15608 -56.98308 -56.98121
 Alpha  occ. eigenvalues --  -56.98121 -10.45007  -9.52196  -8.84259  -7.24341
 Alpha  occ. eigenvalues --   -7.24266  -7.24266  -6.66858  -6.66129  -6.66129
 Alpha  occ. eigenvalues --   -2.70008  -2.69768  -2.69768  -2.69122  -2.69122
 Alpha  occ. eigenvalues --   -0.71796  -0.62990  -0.59560  -0.36307  -0.36304
 Alpha  occ. eigenvalues --   -0.26284  -0.19167  -0.19166  -0.12147  -0.12146
 Alpha  occ. eigenvalues --   -0.11674
 Alpha virt. eigenvalues --    0.15955   0.23335   0.29034   0.29040   0.44614
 Alpha virt. eigenvalues --    0.46189   0.46191   0.48468   0.48470   0.52077
 Alpha virt. eigenvalues --    0.55661   0.55668   0.60332   0.68331   0.76524

 Mulliken charges:
               1
     1  C   -0.360532
     2  H    0.198972
     3  H    0.198931
     4  H    0.199115
     5  Cl  -0.858053
     6  Br  -0.378433
 Sum of Mulliken charges =  -1.00000

 Dipole moment (field-independent basis, Debye):
    X=             -9.1825    Y=              0.0010    Z=              0.0028  Tot=              9.1825
 Quadrupole moment (field-independent basis, Debye-Ang):
   XX=            -93.1485   YY=            -43.0558   ZZ=            -43.0550
   XY=              0.0016   XZ=              0.0045   YZ=             -0.0004

 Normal termination of Gaussian 16 at Tue Jan 22 16:50:32 2019.
