 Gaussian 16, Revision A.03,
 Gaussian 16:  ES64L-G16RevA.03 25-Dec-2016

 -------------------------------------------
 # M062X/6-311G** force nosymm int=ultrafine
 -------------------------------------------

 -----
 Title
 -----
 Symbolic Z-matrix:
 Charge = -1 Multiplicity = 1

                          Input orientation:
 ---------------------------------------------------------------------
 Center     Atomic      Atomic             Coordinates (Angstroms)
 Number     Number       Type             X           Y           Z
 ---------------------------------------------------------------------
      1          6           0        0.722470    0.000260    0.001240
      2          1           0        0.856240   -0.866720    0.621930
      3          1           0        0.856020    0.971300    0.441810
      4          1           0        0.856410   -0.103650   -1.059870
      5         17           0        3.224390   -0.000060   -0.000280
      6         35           0       -1.571390   -0.000020   -0.000110
 ---------------------------------------------------------------------

 SCF Done:  E(RM062X) =  -3074.33987863     A.U. after   15 cycles

 Alpha  occ. eigenvalues -- -485.13978-102.40254 -63.13189 -56.95868 -56.95714
 Alpha  occ. eigenvalues --  -56.95714 -10.45704  -9.54433  -8.81823  -7.26626
 Alpha  occ. eigenvalues --   -7.26470  -7.26470  -6.64336  -6.63739  -6.63738
 Alpha  occ. eigenvalues --   -2.67489  -2.67297  -2.67297  -2.66769  -2.66769
 Alpha  occ. eigenvalues --   -0.69707  -0.64249  -0.60004  -0.36793  -0.36792
 Alpha  occ. eigenvalues --   -0.23961  -0.17408  -0.17407  -0.13988  -0.13988
 Alpha  occ. eigenvalues --   -0.12851
 Alpha virt. eigenvalues --    0.15100   0.22794   0.28900   0.28906   0.45644
 Alpha virt. eigenvalues --    0.46617   0.46618   0.49661   0.49664   0.49743
 Alpha virt. eigenvalues --    0.54533   0.54537   0.62993   0.66975   0.76557

 Mulliken charges:
               1
     1  C   -0.350078
     2  H    0.203717
     3  H    0.203687
     4  H    0.203845
     5  Cl  -0.770995
     6  Br  -0.490177
 Sum of Mulliken charges =  -1.00000

 Dipole moment (field-independent basis, Debye):
    X=             -6.9825    Y=              0.0007    Z=              0.0029  Tot=              6.9825
 Quadrupole moment (field-independent basis, Debye-Ang):
   XX=            -90.0813   YY=            -43.0519   ZZ=            -43.0513
   XY=              0.0006   XZ=              0.0046   YZ=             -0.0003

 Normal termination of Gaussian 16 at Tue Jan 22 16:49:39 2019.
