 Gaussian 16, Revision A.03,
 Gaussian 16:  ES64L-G16RevA.03 25-Dec-2016

 -------------------------------------------
 # M062X/6-311G** force nosymm int=ultrafine
 -------------------------------------------

 -----
 Title
 -----
 Symbolic Z-matrix:
 Charge = -1 Multiplicity = 1

                          Input orientation:
 ---------------------------------------------------------------------
 Center     Atomic      Atomic             Coordinates (Angstroms)
 Number     Number       Type             X           Y           Z
 ---------------------------------------------------------------------
      1          6           0        1.451050    0.003670    0.004730
      2          1           0        1.113180   -0.826600    0.610010
      3          1           0        1.116450    0.944780    0.424100
      4          1           0        1.109780   -0.102590   -1.016380
      5         17           0        3.282340   -0.000420   -0.000430
      6         35           0       -1.717700   -0.000570   -0.000760
 ---------------------------------------------------------------------

 SCF Done:  E(RM062X) =  -3074.35857838     A.U. after   13 cycles

 Alpha  occ. eigenvalues -- -485.03832-102.53342 -63.03042 -56.85630 -56.85624
 Alpha  occ. eigenvalues --  -56.85624 -10.44876  -9.67546  -8.71628  -7.40002
 Alpha  occ. eigenvalues --   -7.39427  -7.39427  -6.53782  -6.53750  -6.53750
 Alpha  occ. eigenvalues --   -2.56969  -2.56959  -2.56959  -2.56932  -2.56931
 Alpha  occ. eigenvalues --   -0.81199  -0.62773  -0.55127  -0.37318  -0.37289
 Alpha  occ. eigenvalues --   -0.33240  -0.23623  -0.23617  -0.09079  -0.09011
 Alpha  occ. eigenvalues --   -0.09010
 Alpha virt. eigenvalues --    0.19895   0.23428   0.28181   0.28220   0.42687
 Alpha virt. eigenvalues --    0.46043   0.46052   0.46733   0.46738   0.54339
 Alpha virt. eigenvalues --    0.56620   0.56637   0.58372   0.71208   0.74878

 Mulliken charges:
               1
     1  C   -0.393099
     2  H    0.188864
     3  H    0.188280
     4  H    0.189217
     5  Cl  -0.243960
     6  Br  -0.929302
 Sum of Mulliken charges =  -1.00000

 Dipole moment (field-independent basis, Debye):
    X=              3.9089    Y=              0.0078    Z=              0.0096  Tot=              3.9089
 Quadrupole moment (field-independent basis, Debye-Ang):
   XX=            -72.8006   YY=            -43.1943   ZZ=            -43.1926
   XY=              0.0027   XZ=              0.0030   YZ=             -0.0009

 Normal termination of Gaussian 16 at Tue Jan 22 16:57:34 2019.
