 Gaussian 16, Revision A.03,
 Gaussian 16:  ES64L-G16RevA.03 25-Dec-2016

 -------------------------------------------
 # M062X/6-311G** force nosymm int=ultrafine
 -------------------------------------------

 -----
 Title
 -----
 Symbolic Z-matrix:
 Charge = -1 Multiplicity = 1

                          Input orientation:
 ---------------------------------------------------------------------
 Center     Atomic      Atomic             Coordinates (Angstroms)
 Number     Number       Type             X           Y           Z
 ---------------------------------------------------------------------
      1          6           0        1.390020    0.001210    0.001270
      2          1           0        1.053730   -0.834930    0.601480
      3          1           0        1.055900    0.938270    0.426180
      4          1           0        1.056120   -0.099530   -1.021000
      5         17           0        3.220360   -0.000190   -0.000020
      6         35           0       -1.678740   -0.000150   -0.000270
 ---------------------------------------------------------------------

 SCF Done:  E(RM062X) =  -3074.35789123     A.U. after   13 cycles

 Alpha  occ. eigenvalues -- -485.03899-102.52942 -63.03117 -56.85702 -56.85698
 Alpha  occ. eigenvalues --  -56.85698 -10.44472  -9.67158  -8.71708  -7.39610
 Alpha  occ. eigenvalues --   -7.39042  -7.39042  -6.53861  -6.53831  -6.53831
 Alpha  occ. eigenvalues --   -2.57048  -2.57038  -2.57038  -2.57014  -2.57014
 Alpha  occ. eigenvalues --   -0.80881  -0.62496  -0.55220  -0.37046  -0.36990
 Alpha  occ. eigenvalues --   -0.32904  -0.23296  -0.23288  -0.09129  -0.09123
 Alpha  occ. eigenvalues --   -0.09121
 Alpha virt. eigenvalues --    0.20398   0.23586   0.28448   0.28470   0.43080
 Alpha virt. eigenvalues --    0.46316   0.46337   0.47016   0.47018   0.53831
 Alpha virt. eigenvalues --    0.56605   0.56610   0.59690   0.71726   0.74441

 Mulliken charges:
               1
     1  C   -0.392721
     2  H    0.188550
     3  H    0.188448
     4  H    0.188764
     5  Cl  -0.250580
     6  Br  -0.922461
 Sum of Mulliken charges =  -1.00000

 Dipole moment (field-independent basis, Debye):
    X=              3.6476    Y=              0.0025    Z=              0.0029  Tot=              3.6476
 Quadrupole moment (field-independent basis, Debye-Ang):
   XX=            -72.2243   YY=            -43.1900   ZZ=            -43.1877
   XY=              0.0019   XZ=             -0.0047   YZ=             -0.0004

 Normal termination of Gaussian 16 at Tue Jan 22 16:56:47 2019.
