 Gaussian 16, Revision A.03,
 Gaussian 16:  ES64L-G16RevA.03 25-Dec-2016

 -------------------------------------------
 # M062X/6-311G** force nosymm int=ultrafine
 -------------------------------------------

 -----
 Title
 -----
 Symbolic Z-matrix:
 Charge = -1 Multiplicity = 1

                          Input orientation:
 ---------------------------------------------------------------------
 Center     Atomic      Atomic             Coordinates (Angstroms)
 Number     Number       Type             X           Y           Z
 ---------------------------------------------------------------------
      1          6           0        0.384860    0.000540    0.001180
      2          1           0        0.710900   -0.833100    0.608410
      3          1           0        0.709730    0.943490    0.419930
      4          1           0        0.711260   -0.108100   -1.024020
      5         17           0        3.434550    0.000230   -0.000620
      6         35           0       -1.607600   -0.000210    0.000040
 ---------------------------------------------------------------------

 SCF Done:  E(RM062X) =  -3074.35176840     A.U. after   13 cycles

 Alpha  occ. eigenvalues -- -485.19322-102.36143 -63.18543 -57.01263 -57.01045
 Alpha  occ. eigenvalues --  -57.01045 -10.44735  -9.50298  -8.87236  -7.22415
 Alpha  occ. eigenvalues --   -7.22392  -7.22392  -6.69929  -6.69062  -6.69062
 Alpha  occ. eigenvalues --   -2.73082  -2.72784  -2.72784  -2.72015  -2.72015
 Alpha  occ. eigenvalues --   -0.75740  -0.62000  -0.58794  -0.36568  -0.36565
 Alpha  occ. eigenvalues --   -0.30184  -0.21148  -0.21147  -0.10350  -0.10342
 Alpha  occ. eigenvalues --   -0.10341
 Alpha virt. eigenvalues --    0.16849   0.23700   0.28429   0.28438   0.43453
 Alpha virt. eigenvalues --    0.45396   0.45398   0.46606   0.46608   0.55314
 Alpha virt. eigenvalues --    0.56824   0.56833   0.57551   0.66300   0.75829

 Mulliken charges:
               1
     1  C   -0.397404
     2  H    0.193779
     3  H    0.193695
     4  H    0.193913
     5  Cl  -0.937210
     6  Br  -0.246773
 Sum of Mulliken charges =  -1.00000

 Dipole moment (field-independent basis, Debye):
    X=            -12.0515    Y=              0.0000    Z=              0.0039  Tot=             12.0515
 Quadrupole moment (field-independent basis, Debye-Ang):
   XX=           -100.3414   YY=            -43.0191   ZZ=            -43.0195
   XY=             -0.0046   XZ=              0.0110   YZ=             -0.0001

 Optimization completed.
    -- Stationary point found.
 Normal termination of Gaussian 16 at Tue Jan 22 16:53:12 2019.
