 Gaussian 16, Revision A.03,
 Gaussian 16:  ES64L-G16RevA.03 25-Dec-2016

 -------------------------------------------
 # M062X/6-311G** force nosymm int=ultrafine
 -------------------------------------------

 -----
 Title
 -----
 Symbolic Z-matrix:
 Charge = -1 Multiplicity = 1

                          Input orientation:
 ---------------------------------------------------------------------
 Center     Atomic      Atomic             Coordinates (Angstroms)
 Number     Number       Type             X           Y           Z
 ---------------------------------------------------------------------
      1          6           0        0.390440    0.001250    0.001890
      2          1           0        0.715140   -0.833180    0.607960
      3          1           0        0.713670    0.943340    0.421730
      4          1           0        0.716750   -0.106190   -1.024100
      5         17           0        3.420880   -0.000100   -0.000720
      6         35           0       -1.602570   -0.000200   -0.000040
 ---------------------------------------------------------------------

 SCF Done:  E(RM062X) =  -3074.35174559     A.U. after   13 cycles

 Alpha  occ. eigenvalues -- -485.19244-102.36168 -63.18465 -57.01184 -57.00967
 Alpha  occ. eigenvalues --  -57.00967 -10.44666  -9.50325  -8.87158  -7.22443
 Alpha  occ. eigenvalues --   -7.22419  -7.22419  -6.69849  -6.68985  -6.68985
 Alpha  occ. eigenvalues --   -2.73002  -2.72705  -2.72705  -2.71939  -2.71939
 Alpha  occ. eigenvalues --   -0.75667  -0.61966  -0.58808  -0.36530  -0.36502
 Alpha  occ. eigenvalues --   -0.30107  -0.21085  -0.21082  -0.10375  -0.10374
 Alpha  occ. eigenvalues --   -0.10372
 Alpha virt. eigenvalues --    0.16930   0.23729   0.28483   0.28486   0.43525
 Alpha virt. eigenvalues --    0.45450   0.45460   0.46661   0.46662   0.55473
 Alpha virt. eigenvalues --    0.56810   0.56822   0.57301   0.66561   0.75889

 Mulliken charges:
               1
     1  C   -0.397098
     2  H    0.193804
     3  H    0.193672
     4  H    0.193953
     5  Cl  -0.935555
     6  Br  -0.248776
 Sum of Mulliken charges =  -1.00000

 Dipole moment (field-independent basis, Debye):
    X=            -11.9592    Y=              0.0020    Z=              0.0050  Tot=             11.9592
 Quadrupole moment (field-independent basis, Debye-Ang):
   XX=            -99.8922   YY=            -43.0196   ZZ=            -43.0193
   XY=              0.0015   XZ=              0.0118   YZ=             -0.0000

 Normal termination of Gaussian 16 at Tue Jan 22 16:53:04 2019.
