 Gaussian 16, Revision A.03,
 Gaussian 16:  ES64L-G16RevA.03 25-Dec-2016

 -------------------------------------------
 # M062X/6-311G** force nosymm int=ultrafine
 -------------------------------------------

 -----
 Title
 -----
 Symbolic Z-matrix:
 Charge = -1 Multiplicity = 1

                          Input orientation:
 ---------------------------------------------------------------------
 Center     Atomic      Atomic             Coordinates (Angstroms)
 Number     Number       Type             X           Y           Z
 ---------------------------------------------------------------------
      1          6           0        1.421830    0.001670    0.002660
      2          1           0        1.082660   -0.832130    0.604050
      3          1           0        1.087820    0.939220    0.424910
      4          1           0        1.081220   -0.101470   -1.019500
      5         17           0        3.251970   -0.000110   -0.000100
      6         35           0       -1.698680   -0.000280   -0.000480
 ---------------------------------------------------------------------

 SCF Done:  E(RM062X) =  -3074.35832536     A.U. after   13 cycles

 Alpha  occ. eigenvalues -- -485.03864-102.53161 -63.03078 -56.85665 -56.85660
 Alpha  occ. eigenvalues --  -56.85660 -10.44668  -9.67371  -8.71666  -7.39826
 Alpha  occ. eigenvalues --   -7.39254  -7.39254  -6.53820  -6.53789  -6.53788
 Alpha  occ. eigenvalues --   -2.57007  -2.56997  -2.56997  -2.56971  -2.56971
 Alpha  occ. eigenvalues --   -0.81059  -0.62631  -0.55172  -0.37170  -0.37125
 Alpha  occ. eigenvalues --   -0.33103  -0.23466  -0.23462  -0.09105  -0.09064
 Alpha  occ. eigenvalues --   -0.09063
 Alpha virt. eigenvalues --    0.20149   0.23520   0.28327   0.28337   0.42885
 Alpha virt. eigenvalues --    0.46168   0.46187   0.46872   0.46877   0.54103
 Alpha virt. eigenvalues --    0.56616   0.56627   0.58980   0.71488   0.74663

 Mulliken charges:
               1
     1  C   -0.393326
     2  H    0.188615
     3  H    0.188398
     4  H    0.188851
     5  Cl  -0.246472
     6  Br  -0.926066
 Sum of Mulliken charges =  -1.00000

 Dipole moment (field-independent basis, Debye):
    X=              3.7861    Y=              0.0039    Z=              0.0056  Tot=              3.7861
 Quadrupole moment (field-independent basis, Debye-Ang):
   XX=            -72.4862   YY=            -43.1938   ZZ=            -43.1936
   XY=              0.0057   XZ=              0.0018   YZ=              0.0003

 Normal termination of Gaussian 16 at Tue Jan 22 16:57:11 2019.
