 Gaussian 16, Revision A.03,
 Gaussian 16:  ES64L-G16RevA.03 25-Dec-2016

 -------------------------------------------
 # M062X/6-311G** force nosymm int=ultrafine
 -------------------------------------------

 -----
 Title
 -----
 Symbolic Z-matrix:
 Charge = -1 Multiplicity = 1

                          Input orientation:
 ---------------------------------------------------------------------
 Center     Atomic      Atomic             Coordinates (Angstroms)
 Number     Number       Type             X           Y           Z
 ---------------------------------------------------------------------
      1          6           0        1.410910    0.001590    0.002330
      2          1           0        1.073980   -0.832710    0.602930
      3          1           0        1.074700    0.939080    0.425580
      4          1           0        1.072340   -0.100240   -1.020020
      5         17           0        3.241570   -0.000200   -0.000110
      6         35           0       -1.692020   -0.000230   -0.000420
 ---------------------------------------------------------------------

 SCF Done:  E(RM062X) =  -3074.35820279     A.U. after   13 cycles

 Alpha  occ. eigenvalues -- -485.03879-102.53089 -63.03094 -56.85681 -56.85676
 Alpha  occ. eigenvalues --  -56.85676 -10.44606  -9.67300  -8.71684  -7.39754
 Alpha  occ. eigenvalues --   -7.39183  -7.39183  -6.53837  -6.53806  -6.53806
 Alpha  occ. eigenvalues --   -2.57024  -2.57014  -2.57014  -2.56989  -2.56989
 Alpha  occ. eigenvalues --   -0.80988  -0.62588  -0.55192  -0.37101  -0.37090
 Alpha  occ. eigenvalues --   -0.33034  -0.23408  -0.23407  -0.09117  -0.09086
 Alpha  occ. eigenvalues --   -0.09085
 Alpha virt. eigenvalues --    0.20220   0.23544   0.28370   0.28384   0.42949
 Alpha virt. eigenvalues --    0.46222   0.46227   0.46924   0.46925   0.54011
 Alpha virt. eigenvalues --    0.56611   0.56620   0.59219   0.71570   0.74584

 Mulliken charges:
               1
     1  C   -0.393079
     2  H    0.188610
     3  H    0.188407
     4  H    0.188810
     5  Cl  -0.247957
     6  Br  -0.924792
 Sum of Mulliken charges =  -1.00000

 Dipole moment (field-independent basis, Debye):
    X=              3.7370    Y=              0.0033    Z=              0.0048  Tot=              3.7370
 Quadrupole moment (field-independent basis, Debye-Ang):
   XX=            -72.4009   YY=            -43.1942   ZZ=            -43.1926
   XY=             -0.0000   XZ=             -0.0003   YZ=             -0.0009

 Normal termination of Gaussian 16 at Tue Jan 22 16:57:03 2019.
