 Gaussian 09, Revision D.01,
 Gaussian 09:  ES64L-G09RevD.01 24-Apr-2013

 -----------------------------------
 # M062X/6-311G** freq int=ultrafine
 -----------------------------------

 -----
 Title
 -----
 Symbolic Z-matrix:
 Charge = -1 Multiplicity = 1

                         Standard orientation:
 ---------------------------------------------------------------------
 Center     Atomic      Atomic             Coordinates (Angstroms)
 Number     Number       Type             X           Y           Z
 ---------------------------------------------------------------------
      1          6           0       -0.001343    0.000665    0.740136
      2          1           0       -0.626185   -0.871670    0.756060
      3          1           0       -0.444358    0.977996    0.754653
      4          1           0        1.066457   -0.104315    0.755251
      5         17           0        0.000369    0.002356    3.089936
      6         35           0        0.000168   -0.001316   -1.692448
 ---------------------------------------------------------------------

 SCF Done:  E(RM062X) =  -3074.33747409     A.U. after   14 cycles

 The electronic state is 1-A.
 Alpha  occ. eigenvalues -- -485.11146-102.43278 -63.10369 -56.93019 -56.92908
 Alpha  occ. eigenvalues --  -56.92908 -10.45979  -9.57413  -8.78994  -7.29673
 Alpha  occ. eigenvalues --   -7.29408  -7.29408  -6.61406  -6.60967  -6.60967
 Alpha  occ. eigenvalues --   -2.64567  -2.64428  -2.64427  -2.64041  -2.64041
 Alpha  occ. eigenvalues --   -0.69609  -0.64793  -0.59659  -0.37030  -0.37029
 Alpha  occ. eigenvalues --   -0.23212  -0.16550  -0.16549  -0.15047  -0.15046
 Alpha  occ. eigenvalues --   -0.13299
 Alpha virt. eigenvalues --    0.15064   0.22508   0.28816   0.28822   0.46891
 Alpha virt. eigenvalues --    0.47077   0.47079   0.47736   0.50410   0.50412
 Alpha virt. eigenvalues --    0.53739   0.53743   0.65167   0.66626   0.76739

 Mulliken charges:
               1
     1  C   -0.351347
     2  H    0.205203
     3  H    0.205207
     4  H    0.205356
     5  Cl  -0.652226
     6  Br  -0.612193
 Sum of Mulliken charges =  -1.00000

 Dipole moment (field-independent basis, Debye):
    X=             -0.0035    Y=             -0.0026    Z=             -3.7789  Tot=              3.7789
 Quadrupole moment (field-independent basis, Debye-Ang):
   XX=            -43.0609   YY=            -43.0612   ZZ=            -84.9257
   XY=              0.0002   XZ=             -0.0045   YZ=             -0.0321

  Exact polarizability:  26.813  -0.007  26.840  -0.007   0.079 125.647
 Approx polarizability:  32.425   0.000  32.424   0.001   0.077 132.520

 ******    1 imaginary frequencies (negative Signs) ******

                      1                      2                      3
                      A                      A                      A
 Frequencies --   -406.1175               184.9609               192.7023
 Red. masses --     12.9480                35.8663                 4.1923
 Frc consts  --      1.2582                 0.7229                 0.0917
 IR Inten    --   1406.0879                 2.2354                11.2597

                      4                      5                      6
                      A                      A                      A
 Frequencies --    193.8595               956.9505               957.5400
 Red. masses --      4.1946                 1.0110                 1.0110
 Frc consts  --      0.0929                 0.5455                 0.5462
 IR Inten    --     11.2364                 0.0675                 0.0664

                      7                      8                      9
                      A                      A                      A
 Frequencies --   1055.6929              1406.1633              1406.8674
 Red. masses --      1.0360                 1.1034                 1.1034
 Frc consts  --      0.6803                 1.2855                 1.2868
 IR Inten    --    202.3718                 6.4132                 6.3619

                     10                     11                     12
                      A                      A                      A
 Frequencies --   3204.8514              3404.8918              3406.4495
 Red. masses --      1.0079                 1.1234                 1.1233
 Frc consts  --      6.0992                 7.6732                 7.6798
 IR Inten    --      0.2655                 4.7376                 4.5105

 - Thermochemistry -
 -------------------
 Temperature   298.150 Kelvin.  Pressure   1.00000 Atm.
 Atom     1 has atomic number  6 and mass  12.00000

 Molecular mass:   128.91066 amu.
 Principal axes and moments of inertia in atomic units:
                           1         2         3
     Eigenvalues --    12.431292029.674732029.67562
           X            0.00001  -0.00398   0.99999
           Y            0.00077   0.99999   0.00398
           Z            1.00000  -0.00077  -0.00001
 This molecule is an asymmetric top.
 Rotational symmetry number  1.
 Rotational temperatures (Kelvin)      6.96740     0.04267     0.04267
 Rotational constants (GHZ):         145.17727     0.88918     0.88918
    1 imaginary frequencies ignored.
 Zero-point vibrational energy      97919.9 (Joules/Mol)
                                   23.40342 (Kcal/Mol)
 Warning -- explicit consideration of   3 degrees of freedom as
           vibrations may cause significant error
 Vibrational temperatures:    266.12   277.26   278.92  1376.84  1377.68
          (Kelvin)           1518.90  2023.15  2024.17  4611.06  4898.87
                             4901.11

 Zero-point correction=                           0.037296 (Hartree/Particle)
 Thermal correction to Energy=                    0.041987
 Thermal correction to Enthalpy=                  0.042931
 Thermal correction to Gibbs Free Energy=         0.008285
 Sum of electronic and zero-point Energies=          -3074.300178
 Sum of electronic and thermal Energies=             -3074.295487
 Sum of electronic and thermal Enthalpies=           -3074.294543
 Sum of electronic and thermal Free Energies=        -3074.329189

                     E (Thermal)             CV                S
                      KCal/Mol        Cal/Mol-Kelvin    Cal/Mol-Kelvin
 Total                   26.347             12.901             72.918
 Electronic               0.000              0.000              0.000
 Translational            0.889              2.981             40.475
 Rotational               0.889              2.981             25.441
 Vibrational             24.570              6.939              7.002
 Vibration     1          0.631              1.860              2.278
 Vibration     2          0.635              1.850              2.202
 Vibration     3          0.635              1.848              2.191

 Optimization completed.
    -- Stationary point found.
 Normal termination of Gaussian 09 at Tue Jan 29 17:07:39 2019.
