 Gaussian 16, Revision A.03,
 Gaussian 16:  ES64L-G16RevA.03 25-Dec-2016

 ------------------------------------------
 #p M062X/6-31G* em=gd3 force int=ultrafine
 ------------------------------------------

 -----
 Title
 -----
 Symbolic Z-matrix:
 Charge =  0 Multiplicity = 1

                         Standard orientation:
 ---------------------------------------------------------------------
 Center     Atomic      Atomic             Coordinates (Angstroms)
 Number     Number       Type             X           Y           Z
 ---------------------------------------------------------------------
      1          6           0       -4.842275    0.474465   -0.518602
      2          6           0       -4.998974   -0.796142   -1.359040
      3          6           0       -3.651049   -1.228470   -1.948671
      4          6           0       -2.662774   -1.466469   -0.811164
      5          6           0       -2.473361   -0.180260    0.030438
      6          6           0       -3.818096    0.281289    0.603426
      7          1           0       -3.752646   -2.133732   -2.556867
      8          1           0       -5.397804   -1.605571   -0.733542
      9          1           0       -5.717264   -0.634338   -2.168924
     10          1           0       -4.508268    1.295353   -1.167969
     11          1           0       -5.808859    0.769727   -0.097798
     12          1           0       -3.045696   -2.258021   -0.159059
     13          1           0       -2.128147    0.597747   -0.663264
     14          1           0       -4.180346   -0.457716    1.326838
     15          1           0       -3.651061    1.225078    1.135428
     16          1           0       -3.290830   -0.421990   -2.601492
     17          7           0       -1.326189   -1.920666   -1.254494
     18          6           0       -0.650739   -1.243993   -2.218756
     19          6           0       -0.624259   -2.731023   -0.420818
     20          6           0        0.701308   -1.329414   -2.358926
     21          1           0       -1.245506   -0.603729   -2.857241
     22          6           0        0.729875   -2.857489   -0.489468
     23          1           0       -1.203681   -3.235200    0.344867
     24          6           0        1.469390   -2.072175   -1.414517
     25          1           0        1.180800   -0.762944   -3.146172
     26          1           0        1.219903   -3.475384    0.249685
     27          7           0        2.799539   -2.034573   -1.393513
     28          6           0        3.544016   -2.558005   -0.237801
     29          1           0        3.415366   -3.640759   -0.152640
     30          1           0        3.168001   -2.059014    0.666375
     31          6           0        3.560408   -0.977163   -2.081839
     32          1           0        3.820928   -1.304814   -3.095778
     33          1           0        2.961168   -0.064588   -2.117115
     34          7           0       -1.380808   -0.320342    0.976930
     35         16           0       -1.419083   -1.220594    2.330551
     36          8           0       -2.616499   -2.065343    2.281491
     37          8           0       -0.122324   -1.886992    2.488816
     38          6           0       -0.627003    2.728628   -0.065561
     39          6           0       -0.089451    2.090764   -1.191812
     40          6           0       -0.758397    2.148030   -2.413653
     41          6           0       -1.985053    2.804166   -2.525610
     42          6           0       -2.535214    3.419133   -1.402638
     43          6           0       -1.854033    3.383739   -0.186487
     44          1           0        0.830978    1.517672   -1.077615
     45          1           0       -0.318744    1.675300   -3.290055
     46          1           0       -2.504951    2.841892   -3.478714
     47          1           0       -3.492488    3.928089   -1.472727
     48          1           0       -2.286005    3.864534    0.688865
     49          8           0        0.522353    1.393216    1.619704
     50          1           0       -0.568583    0.370009    1.011666
     51          6           0        2.132060    0.692222    1.189018
     52          8           0        2.005449    0.168749    0.055794
     53          8           0        2.212725   -0.132751    2.291649
     54          1           0        1.536768   -0.827383    2.172606
     55          6           0        3.078750    1.873256    1.388266
     56          1           0        2.729822    2.499058    2.216769
     57          1           0        4.033063    1.437236    1.716187
     58          6           0        0.091751    2.665411    1.276408
     59          1           0       -0.605825    3.043308    2.046262
     60          1           0        0.928879    3.385703    1.263254
     61          6           0       -1.527239   -0.041596    3.659885
     62          1           0       -0.675602    0.632296    3.517532
     63          1           0       -2.477017    0.489108    3.576735
     64          1           0       -1.458734   -0.583257    4.604427
     65          6           0        3.313774    2.692715    0.122811
     66          1           0        3.686169    2.027157   -0.664689
     67          1           0        2.366856    3.092643   -0.257486
     68          6           0        4.298233    3.835814    0.356872
     69          1           0        4.484357    4.403805   -0.559741
     70          1           0        3.916562    4.532618    1.111275
     71          1           0        5.260049    3.455511    0.718763
     72          6           0        4.981877   -2.147001   -0.533657
     73          1           0        5.586750   -2.103820    0.373994
     74          1           0        5.444871   -2.856891   -1.227935
     75          6           0        4.793542   -0.781647   -1.196724
     76          1           0        4.543837   -0.040765   -0.431982
     77          1           0        5.664427   -0.443099   -1.761920
 ---------------------------------------------------------------------

 SCF Done:  E(RM062X) =  -1991.35551204     A.U. after   15 cycles

 The electronic state is 1-A.
 Alpha  occ. eigenvalues --  -90.14130 -19.61922 -19.61603 -19.58931 -19.56042
 Alpha  occ. eigenvalues --  -19.53522 -14.85261 -14.80295 -14.75335 -10.63340
 Alpha  occ. eigenvalues --  -10.63330 -10.62716 -10.62207 -10.60884 -10.59415
 Alpha  occ. eigenvalues --  -10.58210 -10.58118 -10.57908 -10.57110 -10.56709
 Alpha  occ. eigenvalues --  -10.55942 -10.55906 -10.55676 -10.55082 -10.54831
 Alpha  occ. eigenvalues --  -10.54827 -10.54749 -10.54680 -10.54537 -10.54391
 Alpha  occ. eigenvalues --  -10.54248 -10.53888 -10.53027 -10.51466 -10.51412
 Alpha  occ. eigenvalues --  -10.50515  -8.45123  -6.37345  -6.37292  -6.37179
 Alpha  occ. eigenvalues --   -1.21940  -1.13767  -1.13491  -1.10152  -1.09132
 Alpha  occ. eigenvalues --   -1.04899  -1.03203  -1.01524  -0.95729  -0.94837
 Alpha  occ. eigenvalues --   -0.93474  -0.90210  -0.88696  -0.86111  -0.86016
 Alpha  occ. eigenvalues --   -0.84720  -0.84224  -0.84107  -0.83049  -0.82670
 Alpha  occ. eigenvalues --   -0.76744  -0.76656  -0.75719  -0.72896  -0.72805
 Alpha  occ. eigenvalues --   -0.71633  -0.68291  -0.68073  -0.67809  -0.67203
 Alpha  occ. eigenvalues --   -0.66623  -0.65221  -0.64558  -0.63373  -0.60537
 Alpha  occ. eigenvalues --   -0.60367  -0.59768  -0.59460  -0.57814  -0.57714
 Alpha  occ. eigenvalues --   -0.57131  -0.56348  -0.55378  -0.54620  -0.54010
 Alpha  occ. eigenvalues --   -0.53451  -0.52709  -0.52420  -0.52168  -0.51566
 Alpha  occ. eigenvalues --   -0.51468  -0.51204  -0.50652  -0.50058  -0.49722
 Alpha  occ. eigenvalues --   -0.49196  -0.48889  -0.48275  -0.48211  -0.47989
 Alpha  occ. eigenvalues --   -0.47762  -0.47320  -0.46993  -0.46756  -0.46062
 Alpha  occ. eigenvalues --   -0.45153  -0.45075  -0.44746  -0.43990  -0.43216
 Alpha  occ. eigenvalues --   -0.42442  -0.42298  -0.41292  -0.41215  -0.41084
 Alpha  occ. eigenvalues --   -0.40646  -0.40453  -0.40122  -0.40000  -0.39483
 Alpha  occ. eigenvalues --   -0.39310  -0.38873  -0.38500  -0.37991  -0.37858
 Alpha  occ. eigenvalues --   -0.37382  -0.37020  -0.36752  -0.35698  -0.35293
 Alpha  occ. eigenvalues --   -0.34944  -0.34222  -0.32414  -0.30584  -0.29647
 Alpha  occ. eigenvalues --   -0.28668  -0.28157  -0.27805  -0.26221  -0.24866
 Alpha virt. eigenvalues --   -0.01368   0.00448   0.03467   0.04016   0.10221
 Alpha virt. eigenvalues --    0.10821   0.11519   0.12243   0.13335   0.13401
 Alpha virt. eigenvalues --    0.14096   0.14530   0.15249   0.15458   0.15650

 Mulliken charges:
               1
     1  C   -0.306832
     2  C   -0.307391
     3  C   -0.311620
     4  C   -0.063014
     5  C    0.067430
     6  C   -0.306979
     7  H    0.173983
     8  H    0.162820
     9  H    0.165927
    10  H    0.152528
    11  H    0.163884
    12  H    0.208902
    13  H    0.172519
    14  H    0.189704
    15  H    0.160549
    16  H    0.156792
    17  N   -0.434501
    18  C    0.086111
    19  C    0.086594
    20  C   -0.215605
    21  H    0.204625
    22  C   -0.224084
    23  H    0.247129
    24  C    0.442381
    25  H    0.192351
    26  H    0.209389
    27  N   -0.519563
    28  C   -0.162032
    29  H    0.170254
    30  H    0.213572
    31  C   -0.146116
    32  H    0.163615
    33  H    0.203491
    34  N   -0.817584
    35  S    1.239914
    36  O   -0.608185
    37  O   -0.603759
    38  C    0.053038
    39  C   -0.198556
    40  C   -0.191649
    41  C   -0.174383
    42  C   -0.163733
    43  C   -0.206134
    44  H    0.226523
    45  H    0.138136
    46  H    0.154509
    47  H    0.158460
    48  H    0.154075
    49  O   -0.648593
    50  H    0.454045
    51  C    0.690437
    52  O   -0.625717
    53  O   -0.679823
    54  H    0.447016
    55  C   -0.339225
    56  H    0.161664
    57  H    0.150942
    58  C   -0.055972
    59  H    0.111988
    60  H    0.136485
    61  C   -0.669561
    62  H    0.266463
    63  H    0.199170
    64  H    0.220755
    65  C   -0.288183
    66  H    0.142478
    67  H    0.149785
    68  C   -0.476455
    69  H    0.151034
    70  H    0.152346
    71  H    0.148597
    72  C   -0.334727
    73  H    0.184632
    74  H    0.162784
    75  C   -0.337366
    76  H    0.200276
    77  H    0.167246
 Sum of Mulliken charges =  -0.00000

 Dipole moment (field-independent basis, Debye):
    X=             -2.3107    Y=             -1.8432    Z=             -5.9223  Tot=              6.6190
 Quadrupole moment (field-independent basis, Debye-Ang):
   XX=           -205.0419   YY=           -224.3222   ZZ=           -218.6859
   XY=            -12.9248   XZ=             -3.6695   YZ=             10.5670

 Normal termination of Gaussian 16 at Thu Feb  7 18:41:26 2019.
