 Gaussian 16, Revision A.03,
 Gaussian 16:  ES64L-G16RevA.03 25-Dec-2016

 ------------------------------------------
 #p M062X/6-31G* em=gd3 force int=ultrafine
 ------------------------------------------

 -----
 Title
 -----
 Symbolic Z-matrix:
 Charge =  0 Multiplicity = 1

                         Standard orientation:
 ---------------------------------------------------------------------
 Center     Atomic      Atomic             Coordinates (Angstroms)
 Number     Number       Type             X           Y           Z
 ---------------------------------------------------------------------
      1          6           0       -4.789034    0.451413   -0.516608
      2          6           0       -4.994708   -0.846053   -1.304168
      3          6           0       -3.677179   -1.319746   -1.930242
      4          6           0       -2.654153   -1.523353   -0.818801
      5          6           0       -2.405147   -0.202877   -0.045406
      6          6           0       -3.718873    0.293256    0.568329
      7          1           0       -3.813927   -2.248813   -2.493849
      8          1           0       -5.377251   -1.627561   -0.634548
      9          1           0       -5.744005   -0.702639   -2.088975
     10          1           0       -4.481104    1.245429   -1.209568
     11          1           0       -5.733535    0.768826   -0.062868
     12          1           0       -3.029279   -2.273112   -0.115514
     13          1           0       -2.087348    0.543875   -0.784278
     14          1           0       -4.060219   -0.415254    1.330428
     15          1           0       -3.524952    1.254205    1.056806
     16          1           0       -3.331305   -0.548349   -2.631522
     17          7           0       -1.338364   -2.018259   -1.274896
     18          6           0       -0.656058   -1.341512   -2.237258
     19          6           0       -0.639495   -2.810869   -0.419050
     20          6           0        0.699068   -1.397472   -2.342323
     21          1           0       -1.251360   -0.721199   -2.895937
     22          6           0        0.717289   -2.904203   -0.450260
     23          1           0       -1.226315   -3.310135    0.344442
     24          6           0        1.456657   -2.094483   -1.353620
     25          1           0        1.186846   -0.830981   -3.124026
     26          1           0        1.205532   -3.495329    0.311391
     27          7           0        2.778798   -1.993998   -1.280854
     28          6           0        3.515170   -2.453780   -0.093577
     29          1           0        3.395435   -3.532178    0.041791
     30          1           0        3.125957   -1.910496    0.780080
     31          6           0        3.505827   -0.922184   -1.976129
     32          1           0        3.747105   -1.235371   -2.999356
     33          1           0        2.877917   -0.027315   -1.992728
     34          7           0       -1.280613   -0.298067    0.872589
     35         16           0       -1.324739   -1.137621    2.270658
     36          8           0       -2.535809   -1.964100    2.270368
     37          8           0       -0.038265   -1.814387    2.452761
     38          6           0       -0.580999    2.678370    0.002828
     39          6           0       -0.109079    2.173572   -1.219209
     40          6           0       -0.888720    2.257650   -2.371372
     41          6           0       -2.156885    2.837819   -2.337090
     42          6           0       -2.638740    3.337918   -1.130515
     43          6           0       -1.852973    3.258401    0.019580
     44          1           0        0.847420    1.662732   -1.233986
     45          1           0       -0.495366    1.872045   -3.309842
     46          1           0       -2.758162    2.905860   -3.239539
     47          1           0       -3.623249    3.795218   -1.082678
     48          1           0       -2.237731    3.662359    0.954035
     49          8           0        0.719627    1.544361    1.865847
     50          1           0       -0.304174   -0.056473    0.554207
     51          6           0        1.871431    0.818582    1.239625
     52          8           0        1.482413    0.208126    0.141116
     53          8           0        2.246629   -0.061060    2.283915
     54          1           0        1.553379   -0.745723    2.298530
     55          6           0        3.065765    1.801316    1.132342
     56          1           0        3.001464    2.517161    1.961483
     57          1           0        3.966165    1.206430    1.329496
     58          6           0        0.252574    2.731143    1.287541
     59          1           0       -0.384905    3.193828    2.052464
     60          1           0        1.084218    3.433061    1.125084
     61          6           0       -1.451784    0.083698    3.555866
     62          1           0       -0.575827    0.729311    3.447394
     63          1           0       -2.379796    0.638486    3.406958
     64          1           0       -1.460006   -0.441297    4.512495
     65          6           0        3.246606    2.538281   -0.191726
     66          1           0        3.346751    1.806403   -1.002526
     67          1           0        2.360967    3.131914   -0.443308
     68          6           0        4.469556    3.453967   -0.159551
     69          1           0        4.618461    3.969362   -1.113414
     70          1           0        4.361781    4.216668    0.620601
     71          1           0        5.379680    2.884996    0.064516
     72          6           0        4.950752   -2.049707   -0.408836
     73          1           0        5.559444   -1.970528    0.493633
     74          1           0        5.412138   -2.783448   -1.079070
     75          6           0        4.757766   -0.708629   -1.120140
     76          1           0        4.541918    0.062770   -0.376385
     77          1           0        5.619763   -0.397135   -1.713753
 ---------------------------------------------------------------------

 SCF Done:  E(RM062X) =  -1991.35823261     A.U. after   14 cycles

 The electronic state is 1-A.
 Alpha  occ. eigenvalues --  -90.14245 -19.61843 -19.61814 -19.58641 -19.56674
 Alpha  occ. eigenvalues --  -19.51162 -14.85194 -14.80433 -14.75907 -10.63420
 Alpha  occ. eigenvalues --  -10.62789 -10.62226 -10.62191 -10.60768 -10.59413
 Alpha  occ. eigenvalues --  -10.58384 -10.58004 -10.57966 -10.57179 -10.56896
 Alpha  occ. eigenvalues --  -10.56715 -10.55684 -10.55634 -10.55095 -10.54855
 Alpha  occ. eigenvalues --  -10.54826 -10.54779 -10.54741 -10.54590 -10.54412
 Alpha  occ. eigenvalues --  -10.54361 -10.54335 -10.53057 -10.51467 -10.51426
 Alpha  occ. eigenvalues --  -10.49637  -8.45222  -6.37440  -6.37415  -6.37258
 Alpha  occ. eigenvalues --   -1.22066  -1.13596  -1.13452  -1.10320  -1.09335
 Alpha  occ. eigenvalues --   -1.05843  -1.01819  -0.99278  -0.95772  -0.95000
 Alpha  occ. eigenvalues --   -0.93514  -0.90314  -0.88760  -0.85957  -0.85721
 Alpha  occ. eigenvalues --   -0.84830  -0.84731  -0.84205  -0.83064  -0.82736
 Alpha  occ. eigenvalues --   -0.76678  -0.76231  -0.75827  -0.74340  -0.72837
 Alpha  occ. eigenvalues --   -0.71679  -0.68328  -0.68211  -0.67940  -0.67243
 Alpha  occ. eigenvalues --   -0.66728  -0.65247  -0.64862  -0.63531  -0.60541
 Alpha  occ. eigenvalues --   -0.60404  -0.59770  -0.59110  -0.57801  -0.57617
 Alpha  occ. eigenvalues --   -0.57201  -0.56448  -0.55802  -0.55167  -0.54210
 Alpha  occ. eigenvalues --   -0.53573  -0.52676  -0.52491  -0.52472  -0.51910
 Alpha  occ. eigenvalues --   -0.51558  -0.51001  -0.50680  -0.49892  -0.49520
 Alpha  occ. eigenvalues --   -0.49164  -0.48858  -0.48207  -0.48140  -0.47979
 Alpha  occ. eigenvalues --   -0.47696  -0.47480  -0.46930  -0.46412  -0.46102
 Alpha  occ. eigenvalues --   -0.44895  -0.44742  -0.44168  -0.43854  -0.43268
 Alpha  occ. eigenvalues --   -0.42539  -0.42156  -0.41375  -0.41284  -0.41085
 Alpha  occ. eigenvalues --   -0.40905  -0.40503  -0.39990  -0.39789  -0.39273
 Alpha  occ. eigenvalues --   -0.39247  -0.39082  -0.38430  -0.38002  -0.37618
 Alpha  occ. eigenvalues --   -0.37385  -0.36747  -0.36543  -0.35780  -0.34918
 Alpha  occ. eigenvalues --   -0.34394  -0.33999  -0.31669  -0.31143  -0.29780
 Alpha  occ. eigenvalues --   -0.28872  -0.28608  -0.27668  -0.24751  -0.24339
 Alpha virt. eigenvalues --   -0.01529   0.00390   0.03535   0.03740   0.10129
 Alpha virt. eigenvalues --    0.10952   0.11637   0.12242   0.13157   0.13479
 Alpha virt. eigenvalues --    0.14224   0.14541   0.14753   0.15222   0.15598

 Mulliken charges:
               1
     1  C   -0.306292
     2  C   -0.307205
     3  C   -0.309147
     4  C   -0.060314
     5  C    0.056265
     6  C   -0.311233
     7  H    0.174138
     8  H    0.162920
     9  H    0.165642
    10  H    0.150920
    11  H    0.163553
    12  H    0.209110
    13  H    0.173337
    14  H    0.193430
    15  H    0.163550
    16  H    0.154426
    17  N   -0.430803
    18  C    0.067355
    19  C    0.064198
    20  C   -0.201469
    21  H    0.206273
    22  C   -0.209479
    23  H    0.244919
    24  C    0.445867
    25  H    0.192223
    26  H    0.211462
    27  N   -0.525634
    28  C   -0.170371
    29  H    0.169705
    30  H    0.228547
    31  C   -0.154688
    32  H    0.165048
    33  H    0.206687
    34  N   -0.814545
    35  S    1.252559
    36  O   -0.611249
    37  O   -0.605334
    38  C    0.083121
    39  C   -0.185537
    40  C   -0.189957
    41  C   -0.171481
    42  C   -0.163777
    43  C   -0.211927
    44  H    0.213372
    45  H    0.140459
    46  H    0.154949
    47  H    0.158602
    48  H    0.152445
    49  O   -0.551836
    50  H    0.447807
    51  C    0.723426
    52  O   -0.721035
    53  O   -0.717881
    54  H    0.443768
    55  C   -0.338358
    56  H    0.148451
    57  H    0.151247
    58  C   -0.090376
    59  H    0.139420
    60  H    0.147988
    61  C   -0.663409
    62  H    0.274471
    63  H    0.196432
    64  H    0.217752
    65  C   -0.291662
    66  H    0.134399
    67  H    0.145977
    68  C   -0.473114
    69  H    0.148809
    70  H    0.153893
    71  H    0.145523
    72  C   -0.331990
    73  H    0.186908
    74  H    0.162805
    75  C   -0.342932
    76  H    0.197973
    77  H    0.170903
 Sum of Mulliken charges =  -0.00000

 Dipole moment (field-independent basis, Debye):
    X=             -2.6609    Y=             -1.9819    Z=             -6.3114  Tot=              7.1304
 Quadrupole moment (field-independent basis, Debye-Ang):
   XX=           -205.9865   YY=           -222.5091   ZZ=           -220.0376
   XY=            -12.5047   XZ=             -5.1941   YZ=             10.0894

 Normal termination of Gaussian 16 at Thu Feb  7 14:11:48 2019.
