 Gaussian 16, Revision A.03,
 Gaussian 16:  ES64L-G16RevA.03 25-Dec-2016

 ------------------------------------------
 #p M062X/6-31G* em=gd3 force int=ultrafine
 ------------------------------------------

 -----
 Title
 -----
 Symbolic Z-matrix:
 Charge =  0 Multiplicity = 1

                         Standard orientation:
 ---------------------------------------------------------------------
 Center     Atomic      Atomic             Coordinates (Angstroms)
 Number     Number       Type             X           Y           Z
 ---------------------------------------------------------------------
      1          6           0       -4.852764    0.358200   -0.493641
      2          6           0       -4.982738   -0.915079   -1.335067
      3          6           0       -3.627405   -1.320386   -1.928186
      4          6           0       -2.636525   -1.532910   -0.789871
      5          6           0       -2.462944   -0.243361    0.056734
      6          6           0       -3.821837    0.186330    0.625404
      7          1           0       -3.713712   -2.226314   -2.538522
      8          1           0       -5.360082   -1.732292   -0.706605
      9          1           0       -5.707127   -0.770772   -2.143161
     10          1           0       -4.536469    1.185252   -1.145165
     11          1           0       -5.826888    0.634208   -0.076143
     12          1           0       -2.993050   -2.332589   -0.132895
     13          1           0       -2.167903    0.537030   -0.662082
     14          1           0       -4.163182   -0.556680    1.356008
     15          1           0       -3.672603    1.135205    1.155162
     16          1           0       -3.286197   -0.505232   -2.581250
     17          7           0       -1.284545   -1.952020   -1.234535
     18          6           0       -0.630902   -1.266618   -2.202322
     19          6           0       -0.562717   -2.733467   -0.395915
     20          6           0        0.724788   -1.328381   -2.353673
     21          1           0       -1.241512   -0.637605   -2.837088
     22          6           0        0.796301   -2.843920   -0.482720
     23          1           0       -1.124562   -3.235035    0.384598
     24          6           0        1.511086   -2.061647   -1.421409
     25          1           0        1.186723   -0.756427   -3.147862
     26          1           0        1.300672   -3.443695    0.261822
     27          7           0        2.850534   -1.999030   -1.411488
     28          6           0        3.607753   -2.503523   -0.257288
     29          1           0        3.514587   -3.589719   -0.174927
     30          1           0        3.216218   -2.038863    0.658561
     31          6           0        3.584116   -0.923731   -2.100976
     32          1           0        3.854667   -1.241754   -3.114747
     33          1           0        2.964555   -0.024553   -2.149577
     34          7           0       -1.353195   -0.337249    0.970195
     35         16           0       -1.377568   -1.224712    2.281296
     36          8           0       -2.496331   -2.189589    2.318352
     37          8           0       -0.022167   -1.803942    2.478097
     38          6           0       -0.780639    2.783660   -0.075830
     39          6           0       -0.189771    2.136710   -1.169207
     40          6           0       -0.828904    2.147557   -2.407515
     41          6           0       -2.072574    2.762502   -2.561201
     42          6           0       -2.671973    3.382879   -1.468009
     43          6           0       -2.021354    3.394352   -0.237638
     44          1           0        0.744443    1.594026   -1.033500
     45          1           0       -0.357884    1.666286   -3.262437
     46          1           0       -2.573623    2.757265   -3.524440
     47          1           0       -3.645128    3.853839   -1.565726
     48          1           0       -2.483231    3.869090    0.624524
     49          8           0        0.295411    1.521800    1.685610
     50          1           0       -0.337684    0.812362    1.280149
     51          6           0        2.416736    0.565802    1.167894
     52          8           0        2.093594    0.157936    0.066861
     53          8           0        2.270925   -0.144379    2.283881
     54          1           0        1.534325   -0.799654    2.176476
     55          6           0        3.140906    1.874198    1.388154
     56          1           0        2.612009    2.414486    2.181235
     57          1           0        4.133022    1.631900    1.791239
     58          6           0       -0.130545    2.781968    1.289839
     59          1           0       -0.836145    3.210377    2.019428
     60          1           0        0.756112    3.433410    1.286545
     61          6           0       -1.552882   -0.084607    3.653887
     62          1           0       -0.742687    0.640160    3.543156
     63          1           0       -2.523045    0.410759    3.581730
     64          1           0       -1.461117   -0.633526    4.591824
     65          6           0        3.277937    2.724054    0.125995
     66          1           0        3.664187    2.102607   -0.690281
     67          1           0        2.291783    3.067773   -0.208034
     68          6           0        4.195695    3.924456    0.348136
     69          1           0        4.335898    4.498888   -0.572162
     70          1           0        3.787434    4.601571    1.106022
     71          1           0        5.182676    3.598683    0.694044
     72          6           0        5.034725   -2.046292   -0.543178
     73          1           0        5.632727   -1.979522    0.367918
     74          1           0        5.523694   -2.745337   -1.229300
     75          6           0        4.817253   -0.692410   -1.221792
     76          1           0        4.573637    0.059844   -0.466448
     77          1           0        5.679618   -0.344593   -1.794072
 ---------------------------------------------------------------------

 SCF Done:  E(RM062X) =  -1991.37803898     A.U. after   15 cycles

 The electronic state is 1-A.
 Alpha  occ. eigenvalues --  -90.10283 -19.63665 -19.60157 -19.58354 -19.58269
 Alpha  occ. eigenvalues --  -19.58179 -14.84816 -14.80405 -14.69338 -10.65974
 Alpha  occ. eigenvalues --  -10.63225 -10.62461 -10.61697 -10.59305 -10.59037
 Alpha  occ. eigenvalues --  -10.58846 -10.57837 -10.57127 -10.56782 -10.56765
 Alpha  occ. eigenvalues --  -10.55906 -10.55672 -10.55656 -10.55117 -10.55045
 Alpha  occ. eigenvalues --  -10.54949 -10.54638 -10.54600 -10.54495 -10.53992
 Alpha  occ. eigenvalues --  -10.53691 -10.53632 -10.53631 -10.53231 -10.52997
 Alpha  occ. eigenvalues --  -10.52648  -8.41230  -6.33466  -6.33378  -6.33300
 Alpha  occ. eigenvalues --   -1.19273  -1.17717  -1.12944  -1.10073  -1.09692
 Alpha  occ. eigenvalues --   -1.09030  -1.06029  -0.97698  -0.95387  -0.94769
 Alpha  occ. eigenvalues --   -0.92247  -0.89827  -0.88582  -0.88460  -0.85065
 Alpha  occ. eigenvalues --   -0.84782  -0.83775  -0.83582  -0.83308  -0.79995
 Alpha  occ. eigenvalues --   -0.79508  -0.76316  -0.75609  -0.74487  -0.70996
 Alpha  occ. eigenvalues --   -0.70378  -0.69443  -0.68648  -0.68355  -0.68123
 Alpha  occ. eigenvalues --   -0.66001  -0.64806  -0.63927  -0.63551  -0.61655
 Alpha  occ. eigenvalues --   -0.60311  -0.59414  -0.59115  -0.58359  -0.56206
 Alpha  occ. eigenvalues --   -0.55849  -0.55334  -0.55215  -0.54628  -0.53927
 Alpha  occ. eigenvalues --   -0.53501  -0.53061  -0.52651  -0.51822  -0.51629
 Alpha  occ. eigenvalues --   -0.51088  -0.50939  -0.50645  -0.49960  -0.49871
 Alpha  occ. eigenvalues --   -0.49787  -0.49525  -0.48771  -0.48318  -0.48057
 Alpha  occ. eigenvalues --   -0.47523  -0.47278  -0.47105  -0.46996  -0.45798
 Alpha  occ. eigenvalues --   -0.45480  -0.45158  -0.44030  -0.43782  -0.43510
 Alpha  occ. eigenvalues --   -0.43195  -0.42844  -0.42125  -0.41889  -0.41769
 Alpha  occ. eigenvalues --   -0.41280  -0.40934  -0.40507  -0.39895  -0.39719
 Alpha  occ. eigenvalues --   -0.39453  -0.39402  -0.39213  -0.38430  -0.38123
 Alpha  occ. eigenvalues --   -0.37491  -0.36336  -0.35829  -0.35374  -0.35085
 Alpha  occ. eigenvalues --   -0.34171  -0.32937  -0.31927  -0.31730  -0.30892
 Alpha  occ. eigenvalues --   -0.30004  -0.28626  -0.28338  -0.27254  -0.25433
 Alpha virt. eigenvalues --   -0.01100   0.00687   0.03093   0.03664   0.08829
 Alpha virt. eigenvalues --    0.10134   0.10968   0.11747   0.12972   0.13445
 Alpha virt. eigenvalues --    0.13730   0.14327   0.15037   0.15405   0.15860

 Mulliken charges:
               1
     1  C   -0.303762
     2  C   -0.304833
     3  C   -0.309551
     4  C   -0.069347
     5  C    0.071377
     6  C   -0.305036
     7  H    0.167404
     8  H    0.161911
     9  H    0.159533
    10  H    0.144450
    11  H    0.157574
    12  H    0.207568
    13  H    0.140714
    14  H    0.184117
    15  H    0.150021
    16  H    0.149847
    17  N   -0.424875
    18  C    0.096513
    19  C    0.097381
    20  C   -0.226475
    21  H    0.204401
    22  C   -0.228372
    23  H    0.256315
    24  C    0.425959
    25  H    0.187450
    26  H    0.207990
    27  N   -0.525215
    28  C   -0.159410
    29  H    0.177878
    30  H    0.197996
    31  C   -0.145048
    32  H    0.169388
    33  H    0.193639
    34  N   -0.781273
    35  S    1.243639
    36  O   -0.632675
    37  O   -0.665287
    38  C    0.052617
    39  C   -0.178420
    40  C   -0.188776
    41  C   -0.169825
    42  C   -0.160357
    43  C   -0.199708
    44  H    0.203942
    45  H    0.140073
    46  H    0.157370
    47  H    0.162573
    48  H    0.159210
    49  O   -0.718516
    50  H    0.486794
    51  C    0.674055
    52  O   -0.522377
    53  O   -0.646644
    54  H    0.479885
    55  C   -0.376272
    56  H    0.200137
    57  H    0.168861
    58  C   -0.060750
    59  H    0.123844
    60  H    0.137935
    61  C   -0.667695
    62  H    0.236291
    63  H    0.184091
    64  H    0.205169
    65  C   -0.292462
    66  H    0.148115
    67  H    0.163248
    68  C   -0.480739
    69  H    0.160370
    70  H    0.159267
    71  H    0.152420
    72  C   -0.335115
    73  H    0.183948
    74  H    0.169255
    75  C   -0.335176
    76  H    0.178988
    77  H    0.172469
 Sum of Mulliken charges =  -0.00000

 Dipole moment (field-independent basis, Debye):
    X=              1.7677    Y=              0.3008    Z=             -6.8008  Tot=              7.0332
 Quadrupole moment (field-independent basis, Debye-Ang):
   XX=           -200.8875   YY=           -222.7957   ZZ=           -222.9493
   XY=            -11.6212   XZ=              1.6346   YZ=             13.4017

 Normal termination of Gaussian 16 at Thu Feb  7 20:57:12 2019.
