 Gaussian 16, Revision A.03,
 Gaussian 16:  ES64L-G16RevA.03 25-Dec-2016

 ------------------------------------------
 #p M062X/6-31G* em=gd3 force int=ultrafine
 ------------------------------------------

 -----
 Title
 -----
 Symbolic Z-matrix:
 Charge =  0 Multiplicity = 1

                         Standard orientation:
 ---------------------------------------------------------------------
 Center     Atomic      Atomic             Coordinates (Angstroms)
 Number     Number       Type             X           Y           Z
 ---------------------------------------------------------------------
      1          6           0       -4.844696    0.385210   -0.504433
      2          6           0       -4.978130   -0.884891   -1.349943
      3          6           0       -3.622403   -1.290477   -1.940987
      4          6           0       -2.633644   -1.508910   -0.802770
      5          6           0       -2.456846   -0.224903    0.048640
      6          6           0       -3.815531    0.208047    0.615462
      7          1           0       -3.707518   -2.196010   -2.551467
      8          1           0       -5.361101   -1.703808   -0.726911
      9          1           0       -5.699401   -0.734581   -2.159710
     10          1           0       -4.527496    1.213565   -1.153532
     11          1           0       -5.817634    0.661128   -0.084518
     12          1           0       -2.996104   -2.308183   -0.148984
     13          1           0       -2.146121    0.560820   -0.657919
     14          1           0       -4.160941   -0.538904    1.339361
     15          1           0       -3.668909    1.154431    1.150537
     16          1           0       -3.279331   -0.474659   -2.592049
     17          7           0       -1.285228   -1.936693   -1.248155
     18          6           0       -0.626624   -1.249248   -2.211423
     19          6           0       -0.570290   -2.731675   -0.415797
     20          6           0        0.728559   -1.315599   -2.359369
     21          1           0       -1.233141   -0.614367   -2.844258
     22          6           0        0.788223   -2.844446   -0.496711
     23          1           0       -1.137614   -3.241103    0.355487
     24          6           0        1.508348   -2.055129   -1.426417
     25          1           0        1.195055   -0.739616   -3.147891
     26          1           0        1.288685   -3.452275    0.244046
     27          7           0        2.846157   -1.994096   -1.409201
     28          6           0        3.597693   -2.504714   -0.254344
     29          1           0        3.496121   -3.590192   -0.173202
     30          1           0        3.208195   -2.034589    0.659681
     31          6           0        3.584249   -0.917769   -2.091603
     32          1           0        3.854693   -1.232558   -3.106384
     33          1           0        2.967876   -0.016145   -2.134839
     34          7           0       -1.353974   -0.342481    0.968802
     35         16           0       -1.390271   -1.231398    2.286214
     36          8           0       -2.537120   -2.158906    2.290747
     37          8           0       -0.052020   -1.843145    2.480263
     38          6           0       -0.742114    2.773052   -0.063162
     39          6           0       -0.161591    2.131618   -1.165603
     40          6           0       -0.807735    2.157385   -2.399167
     41          6           0       -2.049768    2.780120   -2.537642
     42          6           0       -2.637531    3.394210   -1.434641
     43          6           0       -1.978170    3.392760   -0.209125
     44          1           0        0.768288    1.579618   -1.036079
     45          1           0       -0.344788    1.681901   -3.261834
     46          1           0       -2.556420    2.789364   -3.497750
     47          1           0       -3.608017    3.872106   -1.520342
     48          1           0       -2.428814    3.860311    0.662785
     49          8           0        0.262034    1.418110    1.632459
     50          1           0       -0.432112    0.688525    1.211019
     51          6           0        2.369357    0.580169    1.173389
     52          8           0        2.082994    0.155859    0.068482
     53          8           0        2.252884   -0.141540    2.289225
     54          1           0        1.531765   -0.808078    2.177896
     55          6           0        3.108678    1.879869    1.397361
     56          1           0        2.619695    2.439195    2.203018
     57          1           0        4.095065    1.588806    1.782419
     58          6           0       -0.093572    2.713048    1.299394
     59          1           0       -0.779744    3.151367    2.043726
     60          1           0        0.801982    3.360724    1.306977
     61          6           0       -1.541182   -0.081752    3.653076
     62          1           0       -0.722494    0.631425    3.522708
     63          1           0       -2.506974    0.421456    3.579885
     64          1           0       -1.450995   -0.625467    4.594578
     65          6           0        3.275610    2.729123    0.139193
     66          1           0        3.662280    2.098546   -0.669638
     67          1           0        2.301695    3.092461   -0.208905
     68          6           0        4.214070    3.911075    0.374759
     69          1           0        4.371608    4.487805   -0.541322
     70          1           0        3.811702    4.591433    1.132914
     71          1           0        5.192570    3.566523    0.726848
     72          6           0        5.027155   -2.056239   -0.538999
     73          1           0        5.626493   -1.999329    0.371730
     74          1           0        5.510223   -2.754015   -1.230783
     75          6           0        4.814854   -0.696452   -1.207080
     76          1           0        4.565918    0.047954   -0.445539
     77          1           0        5.679454   -0.344247   -1.773044
 ---------------------------------------------------------------------

 SCF Done:  E(RM062X) =  -1991.37113640     A.U. after   15 cycles

 The electronic state is 1-A.
 Alpha  occ. eigenvalues --  -90.10785 -19.63368 -19.59718 -19.58781 -19.58761
 Alpha  occ. eigenvalues --  -19.56623 -14.84882 -14.80436 -14.69867 -10.65838
 Alpha  occ. eigenvalues --  -10.63280 -10.62508 -10.61813 -10.59439 -10.58998
 Alpha  occ. eigenvalues --  -10.58832 -10.57868 -10.57044 -10.56871 -10.56519
 Alpha  occ. eigenvalues --  -10.55878 -10.55721 -10.55621 -10.54911 -10.54838
 Alpha  occ. eigenvalues --  -10.54741 -10.54712 -10.54225 -10.54116 -10.53710
 Alpha  occ. eigenvalues --  -10.53665 -10.53545 -10.53538 -10.53472 -10.52888
 Alpha  occ. eigenvalues --  -10.52783  -8.41743  -6.33978  -6.33891  -6.33813
 Alpha  occ. eigenvalues --   -1.18980  -1.18275  -1.13036  -1.09868  -1.09030
 Alpha  occ. eigenvalues --   -1.07956  -1.06613  -0.98069  -0.95136  -0.94926
 Alpha  occ. eigenvalues --   -0.92447  -0.89917  -0.88621  -0.88346  -0.84802
 Alpha  occ. eigenvalues --   -0.84696  -0.83875  -0.83650  -0.83295  -0.80306
 Alpha  occ. eigenvalues --   -0.79363  -0.76382  -0.75669  -0.73826  -0.71165
 Alpha  occ. eigenvalues --   -0.70553  -0.69303  -0.68640  -0.68347  -0.67936
 Alpha  occ. eigenvalues --   -0.65666  -0.64895  -0.63959  -0.63368  -0.61941
 Alpha  occ. eigenvalues --   -0.60360  -0.59558  -0.58782  -0.58351  -0.56286
 Alpha  occ. eigenvalues --   -0.55839  -0.55408  -0.55159  -0.54749  -0.53810
 Alpha  occ. eigenvalues --   -0.53574  -0.53113  -0.52396  -0.52043  -0.51396
 Alpha  occ. eigenvalues --   -0.51248  -0.50918  -0.50728  -0.50101  -0.49763
 Alpha  occ. eigenvalues --   -0.49689  -0.49539  -0.48761  -0.48334  -0.47864
 Alpha  occ. eigenvalues --   -0.47210  -0.47175  -0.47056  -0.46648  -0.45984
 Alpha  occ. eigenvalues --   -0.45619  -0.45303  -0.44148  -0.43765  -0.43519
 Alpha  occ. eigenvalues --   -0.43151  -0.42753  -0.42101  -0.41740  -0.41481
 Alpha  occ. eigenvalues --   -0.41323  -0.40788  -0.40451  -0.39996  -0.39654
 Alpha  occ. eigenvalues --   -0.39428  -0.39294  -0.39053  -0.38581  -0.37948
 Alpha  occ. eigenvalues --   -0.37556  -0.36452  -0.35737  -0.35557  -0.34988
 Alpha  occ. eigenvalues --   -0.34148  -0.33057  -0.32254  -0.31554  -0.30081
 Alpha  occ. eigenvalues --   -0.29828  -0.28383  -0.27824  -0.27275  -0.25750
 Alpha virt. eigenvalues --   -0.01168   0.00627   0.03313   0.03961   0.09372
 Alpha virt. eigenvalues --    0.10159   0.11006   0.11706   0.12911   0.13427
 Alpha virt. eigenvalues --    0.13792   0.14383   0.15105   0.15369   0.15821

 Mulliken charges:
               1
     1  C   -0.304279
     2  C   -0.305094
     3  C   -0.309735
     4  C   -0.067426
     5  C    0.076294
     6  C   -0.305446
     7  H    0.167669
     8  H    0.161922
     9  H    0.160145
    10  H    0.145627
    11  H    0.158184
    12  H    0.208028
    13  H    0.145910
    14  H    0.185898
    15  H    0.151521
    16  H    0.150902
    17  N   -0.426246
    18  C    0.095909
    19  C    0.098103
    20  C   -0.225625
    21  H    0.205140
    22  C   -0.228501
    23  H    0.254715
    24  C    0.426642
    25  H    0.188452
    26  H    0.208083
    27  N   -0.523942
    28  C   -0.159332
    29  H    0.177347
    30  H    0.198501
    31  C   -0.145500
    32  H    0.169224
    33  H    0.194989
    34  N   -0.804226
    35  S    1.246702
    36  O   -0.629180
    37  O   -0.656461
    38  C    0.054363
    39  C   -0.181008
    40  C   -0.189257
    41  C   -0.171481
    42  C   -0.160816
    43  C   -0.200140
    44  H    0.204833
    45  H    0.138375
    46  H    0.155926
    47  H    0.160911
    48  H    0.157980
    49  O   -0.723168
    50  H    0.492009
    51  C    0.682497
    52  O   -0.526919
    53  O   -0.647392
    54  H    0.476213
    55  C   -0.374995
    56  H    0.196331
    57  H    0.168469
    58  C   -0.054608
    59  H    0.115501
    60  H    0.129153
    61  C   -0.669718
    62  H    0.244448
    63  H    0.186216
    64  H    0.206483
    65  C   -0.293053
    66  H    0.147429
    67  H    0.164635
    68  C   -0.480285
    69  H    0.159987
    70  H    0.159041
    71  H    0.151937
    72  C   -0.334735
    73  H    0.183948
    74  H    0.168835
    75  C   -0.335231
    76  H    0.179955
    77  H    0.172413
 Sum of Mulliken charges =  -0.00000

 Dipole moment (field-independent basis, Debye):
    X=              1.5889    Y=             -0.1093    Z=             -6.5885  Tot=              6.7783
 Quadrupole moment (field-independent basis, Debye-Ang):
   XX=           -201.1858   YY=           -223.3883   ZZ=           -222.1622
   XY=            -11.3688   XZ=              1.2042   YZ=             13.0710

 Normal termination of Gaussian 16 at Thu Feb  7 20:16:41 2019.
