 Gaussian 16, Revision A.03,
 Gaussian 16:  ES64L-G16RevA.03 25-Dec-2016

 ------------------------------------------
 #p M062X/6-31G* em=gd3 force int=ultrafine
 ------------------------------------------

 -----
 Title
 -----
 Symbolic Z-matrix:
 Charge =  0 Multiplicity = 1

                         Standard orientation:
 ---------------------------------------------------------------------
 Center     Atomic      Atomic             Coordinates (Angstroms)
 Number     Number       Type             X           Y           Z
 ---------------------------------------------------------------------
      1          6           0       -4.870070    0.145340   -0.441540
      2          6           0       -4.941127   -1.146691   -1.261040
      3          6           0       -3.568286   -1.497742   -1.847411
      4          6           0       -2.562202   -1.627228   -0.708074
      5          6           0       -2.439054   -0.298038    0.091067
      6          6           0       -3.819039    0.050775    0.668826
      7          1           0       -3.611241   -2.426034   -2.428677
      8          1           0       -5.281677   -1.970712   -0.620429
      9          1           0       -5.671094   -1.049075   -2.071451
     10          1           0       -4.603602    0.976347   -1.109867
     11          1           0       -5.853916    0.376395   -0.019421
     12          1           0       -2.886256   -2.417053   -0.024616
     13          1           0       -2.212646    0.472369   -0.661411
     14          1           0       -4.106425   -0.709093    1.406634
     15          1           0       -3.729489    1.010571    1.191572
     16          1           0       -3.272166   -0.687630   -2.527999
     17          7           0       -1.203135   -2.017246   -1.150913
     18          6           0       -0.582788   -1.348415   -2.150246
     19          6           0       -0.455250   -2.765097   -0.305476
     20          6           0        0.771071   -1.387262   -2.322521
     21          1           0       -1.219715   -0.756155   -2.794538
     22          6           0        0.903718   -2.848440   -0.410699
     23          1           0       -0.995986   -3.250691    0.499810
     24          6           0        1.585243   -2.076388   -1.381255
     25          1           0        1.208403   -0.834546   -3.143530
     26          1           0        1.433527   -3.416935    0.340678
     27          7           0        2.922339   -1.986608   -1.393477
     28          6           0        3.709926   -2.467378   -0.251054
     29          1           0        3.651376   -3.556803   -0.171026
     30          1           0        3.313817   -2.019136    0.670922
     31          6           0        3.624334   -0.919490   -2.122924
     32          1           0        3.886365   -1.260808   -3.131817
     33          1           0        2.985353   -0.034832   -2.187826
     34          7           0       -1.310724   -0.270765    0.997350
     35         16           0       -1.277432   -1.190732    2.281088
     36          8           0       -2.291570   -2.268499    2.278661
     37          8           0        0.116319   -1.659733    2.512082
     38          6           0       -1.023044    2.857175   -0.158899
     39          6           0       -0.346279    2.168903   -1.172683
     40          6           0       -0.917573    2.060891   -2.438600
     41          6           0       -2.179902    2.596308   -2.698269
     42          6           0       -2.869274    3.251353   -1.680600
     43          6           0       -2.287317    3.382082   -0.421640
     44          1           0        0.603804    1.685558   -0.950558
     45          1           0       -0.375012    1.549923   -3.230950
     46          1           0       -2.624420    2.504008   -3.684819
     47          1           0       -3.858868    3.659999   -1.862767
     48          1           0       -2.824523    3.889910    0.376222
     49          8           0        0.254242    1.858648    1.647946
     50          1           0       -0.289876    1.069352    1.346472
     51          6           0        2.440081    0.633587    1.193870
     52          8           0        2.101567    0.202081    0.105456
     53          8           0        2.242637   -0.011178    2.333280
     54          1           0        1.528016   -0.697586    2.228403
     55          6           0        3.191000    1.931320    1.379684
     56          1           0        2.688786    2.471129    2.188410
     57          1           0        4.203191    1.695369    1.737693
     58          6           0       -0.404223    3.012920    1.214004
     59          1           0       -1.186362    3.330216    1.923331
     60          1           0        0.344177    3.819043    1.189344
     61          6           0       -1.617310   -0.129909    3.682983
     62          1           0       -0.891717    0.686288    3.644587
     63          1           0       -2.634488    0.253880    3.583229
     64          1           0       -1.508200   -0.708645    4.601080
     65          6           0        3.240815    2.766927    0.106497
     66          1           0        3.664600    2.168718   -0.709218
     67          1           0        2.215270    3.004809   -0.198021
     68          6           0        4.043879    4.051661    0.285645
     69          1           0        4.083828    4.628356   -0.642998
     70          1           0        3.598578    4.688558    1.057174
     71          1           0        5.073384    3.833536    0.590044
     72          6           0        5.120629   -1.969671   -0.553429
     73          1           0        5.715173   -1.858270    0.355562
     74          1           0        5.634456   -2.671331   -1.218309
     75          6           0        4.864043   -0.640733   -1.268085
     76          1           0        4.615595    0.130323   -0.533521
     77          1           0        5.711956   -0.296393   -1.863705
 ---------------------------------------------------------------------

 SCF Done:  E(RM062X) =  -1991.38760272     A.U. after   15 cycles

 The electronic state is 1-A.
 Alpha  occ. eigenvalues --  -90.10320 -19.63414 -19.60108 -19.59105 -19.58509
 Alpha  occ. eigenvalues --  -19.58329 -14.84788 -14.80475 -14.69346 -10.65539
 Alpha  occ. eigenvalues --  -10.63215 -10.62408 -10.61506 -10.59119 -10.59098
 Alpha  occ. eigenvalues --  -10.59008 -10.57822 -10.57406 -10.56789 -10.56671
 Alpha  occ. eigenvalues --  -10.56001 -10.55730 -10.55554 -10.54995 -10.54933
 Alpha  occ. eigenvalues --  -10.54883 -10.54608 -10.54571 -10.54505 -10.53832
 Alpha  occ. eigenvalues --  -10.53597 -10.53573 -10.53256 -10.53209 -10.52699
 Alpha  occ. eigenvalues --  -10.52621  -8.41282  -6.33520  -6.33428  -6.33347
 Alpha  occ. eigenvalues --   -1.19150  -1.17832  -1.12927  -1.10186  -1.09879
 Alpha  occ. eigenvalues --   -1.09116  -1.06103  -0.97524  -0.95288  -0.94771
 Alpha  occ. eigenvalues --   -0.92184  -0.89838  -0.88567  -0.88163  -0.85037
 Alpha  occ. eigenvalues --   -0.84915  -0.83663  -0.83511  -0.83300  -0.80140
 Alpha  occ. eigenvalues --   -0.79230  -0.76333  -0.75638  -0.74674  -0.70935
 Alpha  occ. eigenvalues --   -0.70209  -0.69167  -0.68695  -0.68347  -0.68039
 Alpha  occ. eigenvalues --   -0.65870  -0.64734  -0.63927  -0.63436  -0.61604
 Alpha  occ. eigenvalues --   -0.60257  -0.59377  -0.59020  -0.58348  -0.56159
 Alpha  occ. eigenvalues --   -0.55472  -0.55193  -0.55090  -0.54170  -0.53738
 Alpha  occ. eigenvalues --   -0.53442  -0.53062  -0.52488  -0.51937  -0.51694
 Alpha  occ. eigenvalues --   -0.51108  -0.50974  -0.50612  -0.50092  -0.49832
 Alpha  occ. eigenvalues --   -0.49586  -0.49533  -0.48805  -0.48332  -0.47989
 Alpha  occ. eigenvalues --   -0.47799  -0.47183  -0.47018  -0.46973  -0.45899
 Alpha  occ. eigenvalues --   -0.45720  -0.45228  -0.43943  -0.43655  -0.43435
 Alpha  occ. eigenvalues --   -0.42795  -0.42605  -0.42203  -0.41996  -0.41878
 Alpha  occ. eigenvalues --   -0.41165  -0.40885  -0.40541  -0.39898  -0.39561
 Alpha  occ. eigenvalues --   -0.39359  -0.39250  -0.38873  -0.38394  -0.37948
 Alpha  occ. eigenvalues --   -0.37314  -0.36216  -0.35825  -0.35343  -0.35135
 Alpha  occ. eigenvalues --   -0.34346  -0.33069  -0.32038  -0.31661  -0.31486
 Alpha  occ. eigenvalues --   -0.29886  -0.28866  -0.28317  -0.27405  -0.25370
 Alpha virt. eigenvalues --   -0.01031   0.00665   0.03223   0.03765   0.09005
 Alpha virt. eigenvalues --    0.10167   0.10908   0.11815   0.12962   0.13543
 Alpha virt. eigenvalues --    0.13866   0.14285   0.15012   0.15480   0.15810

 Mulliken charges:
               1
     1  C   -0.303929
     2  C   -0.304172
     3  C   -0.309622
     4  C   -0.073105
     5  C    0.064010
     6  C   -0.304995
     7  H    0.166370
     8  H    0.161009
     9  H    0.159140
    10  H    0.145809
    11  H    0.156778
    12  H    0.212026
    13  H    0.141251
    14  H    0.179363
    15  H    0.150029
    16  H    0.150149
    17  N   -0.424045
    18  C    0.099089
    19  C    0.084447
    20  C   -0.227335
    21  H    0.204744
    22  C   -0.226475
    23  H    0.263531
    24  C    0.427769
    25  H    0.187940
    26  H    0.207372
    27  N   -0.528152
    28  C   -0.158156
    29  H    0.178329
    30  H    0.198889
    31  C   -0.146564
    32  H    0.169584
    33  H    0.195007
    34  N   -0.758361
    35  S    1.249423
    36  O   -0.645099
    37  O   -0.669972
    38  C    0.048974
    39  C   -0.176503
    40  C   -0.187661
    41  C   -0.169658
    42  C   -0.161580
    43  C   -0.198696
    44  H    0.204649
    45  H    0.139152
    46  H    0.156544
    47  H    0.161989
    48  H    0.157553
    49  O   -0.714917
    50  H    0.483213
    51  C    0.653094
    52  O   -0.522109
    53  O   -0.646468
    54  H    0.485370
    55  C   -0.369967
    56  H    0.201976
    57  H    0.164848
    58  C   -0.064653
    59  H    0.127622
    60  H    0.152641
    61  C   -0.658949
    62  H    0.222689
    63  H    0.187278
    64  H    0.207169
    65  C   -0.288251
    66  H    0.144720
    67  H    0.163496
    68  C   -0.480329
    69  H    0.158915
    70  H    0.158412
    71  H    0.151083
    72  C   -0.337059
    73  H    0.184379
    74  H    0.169938
    75  C   -0.335874
    76  H    0.181813
    77  H    0.173077
 Sum of Mulliken charges =  -0.00000

 Dipole moment (field-independent basis, Debye):
    X=              1.5401    Y=             -0.2932    Z=             -6.6009  Tot=              6.7845
 Quadrupole moment (field-independent basis, Debye-Ang):
   XX=           -198.7961   YY=           -222.6409   ZZ=           -222.3341
   XY=            -11.7601   XZ=             -0.5469   YZ=             12.5588

 Normal termination of Gaussian 16 at Thu Feb  7 23:27:57 2019.
