 Gaussian 16, Revision A.03,
 Gaussian 16:  ES64L-G16RevA.03 25-Dec-2016

 ------------------------------------------
 #p M062X/6-31G* em=gd3 force int=ultrafine
 ------------------------------------------

 -----
 Title
 -----
 Symbolic Z-matrix:
 Charge =  0 Multiplicity = 1

                         Standard orientation:
 ---------------------------------------------------------------------
 Center     Atomic      Atomic             Coordinates (Angstroms)
 Number     Number       Type             X           Y           Z
 ---------------------------------------------------------------------
      1          6           0       -4.789610    0.452304   -0.516466
      2          6           0       -4.995613   -0.845901   -1.302733
      3          6           0       -3.678263   -1.320387   -1.928569
      4          6           0       -2.655015   -1.523082   -0.817181
      5          6           0       -2.405832   -0.202049   -0.044953
      6          6           0       -3.719366    0.294939    0.568520
      7          1           0       -3.815211   -2.249972   -2.491264
      8          1           0       -5.378166   -1.626700   -0.632293
      9          1           0       -5.745012   -0.703154   -2.087556
     10          1           0       -4.481596    1.245584   -1.210220
     11          1           0       -5.734000    0.770338   -0.062931
     12          1           0       -3.029996   -2.272249   -0.113178
     13          1           0       -2.087878    0.544089   -0.784373
     14          1           0       -4.060787   -0.412786    1.331293
     15          1           0       -3.525181    1.256289    1.056098
     16          1           0       -3.332411   -0.549708   -2.630663
     17          7           0       -1.339336   -2.018351   -1.273178
     18          6           0       -0.657147   -1.342190   -2.236039
     19          6           0       -0.640415   -2.810743   -0.417172
     20          6           0        0.697905   -1.398596   -2.341548
     21          1           0       -1.252496   -0.721946   -2.894752
     22          6           0        0.716308   -2.904630   -0.448922
     23          1           0       -1.227099   -3.309397    0.346824
     24          6           0        1.455626   -2.095632   -1.352965
     25          1           0        1.185615   -0.832459   -3.123561
     26          1           0        1.204631   -3.495543    0.312839
     27          7           0        2.777850   -1.995724   -1.280864
     28          6           0        3.514595   -2.456086   -0.094059
     29          1           0        3.394444   -3.534464    0.041122
     30          1           0        3.126038   -1.912795    0.779890
     31          6           0        3.505005   -0.924005   -1.976199
     32          1           0        3.746033   -1.237122   -2.999506
     33          1           0        2.877381   -0.028934   -1.992389
     34          7           0       -1.281348   -0.296677    0.873164
     35         16           0       -1.324958   -1.135270    2.272000
     36          8           0       -2.536754   -1.960621    2.272664
     37          8           0       -0.038992   -1.813042    2.453457
     38          6           0       -0.579642    2.677565    0.000379
     39          6           0       -0.107689    2.171506   -1.221184
     40          6           0       -0.887085    2.254854   -2.373593
     41          6           0       -2.155004    2.835609   -2.340109
     42          6           0       -2.636855    3.337062   -1.134058
     43          6           0       -1.851372    3.258232    0.016283
     44          1           0        0.848598    1.660222   -1.235229
     45          1           0       -0.493660    1.868225   -3.311628
     46          1           0       -2.756067    2.903069   -3.242754
     47          1           0       -3.621160    3.794880   -1.086868
     48          1           0       -2.236147    3.663241    0.950281
     49          8           0        0.720059    1.544666    1.865269
     50          1           0       -0.305315   -0.055653    0.554059
     51          6           0        1.872782    0.818283    1.238858
     52          8           0        1.483182    0.207346    0.140466
     53          8           0        2.247102   -0.060821    2.283850
     54          1           0        1.554390   -0.745614    2.297565
     55          6           0        3.067373    1.801036    1.131771
     56          1           0        3.003747    2.517929    1.961392
     57          1           0        3.968029    1.205862    1.329000
     58          6           0        0.253443    2.730978    1.285469
     59          1           0       -0.384430    3.194110    2.049861
     60          1           0        1.085144    3.432996    1.122842
     61          6           0       -1.450090    0.087006    3.556418
     62          1           0       -0.573520    0.731601    3.446954
     63          1           0       -2.377630    0.642606    3.407586
     64          1           0       -1.458347   -0.437413    4.513363
     65          6           0        3.248946    2.537822   -0.192296
     66          1           0        3.355204    1.806913   -1.001627
     67          1           0        2.362111    3.127205   -0.446885
     68          6           0        4.467597    3.458194   -0.157233
     69          1           0        4.617763    3.973349   -1.111009
     70          1           0        4.352959    4.220092    0.620764
     71          1           0        5.378622    2.893905    0.070861
     72          6           0        4.950159   -2.052466   -0.409875
     73          1           0        5.559408   -1.973980    0.492269
     74          1           0        5.410878   -2.786030   -1.080774
     75          6           0        4.757122   -0.710968   -1.120359
     76          1           0        4.541288    0.059977   -0.376076
     77          1           0        5.619022   -0.399133   -1.713952
 ---------------------------------------------------------------------

 SCF Done:  E(RM062X) =  -1991.35820818     A.U. after   14 cycles

 The electronic state is 1-A.
 Alpha  occ. eigenvalues --  -90.14246 -19.61841 -19.61814 -19.58636 -19.56680
 Alpha  occ. eigenvalues --  -19.51171 -14.85195 -14.80434 -14.75908 -10.63421
 Alpha  occ. eigenvalues --  -10.62789 -10.62228 -10.62203 -10.60768 -10.59413
 Alpha  occ. eigenvalues --  -10.58383 -10.58004 -10.57972 -10.57180 -10.56892
 Alpha  occ. eigenvalues --  -10.56715 -10.55683 -10.55631 -10.55098 -10.54855
 Alpha  occ. eigenvalues --  -10.54825 -10.54780 -10.54740 -10.54590 -10.54412
 Alpha  occ. eigenvalues --  -10.54359 -10.54334 -10.53055 -10.51440 -10.51402
 Alpha  occ. eigenvalues --  -10.49661  -8.45222  -6.37440  -6.37416  -6.37258
 Alpha  occ. eigenvalues --   -1.22067  -1.13595  -1.13437  -1.10321  -1.09337
 Alpha  occ. eigenvalues --   -1.05840  -1.01818  -0.99273  -0.95773  -0.94997
 Alpha  occ. eigenvalues --   -0.93515  -0.90315  -0.88761  -0.85958  -0.85740
 Alpha  occ. eigenvalues --   -0.84826  -0.84730  -0.84206  -0.83061  -0.82736
 Alpha  occ. eigenvalues --   -0.76679  -0.76232  -0.75828  -0.74331  -0.72836
 Alpha  occ. eigenvalues --   -0.71680  -0.68329  -0.68212  -0.67940  -0.67243
 Alpha  occ. eigenvalues --   -0.66731  -0.65246  -0.64866  -0.63532  -0.60541
 Alpha  occ. eigenvalues --   -0.60404  -0.59769  -0.59111  -0.57803  -0.57618
 Alpha  occ. eigenvalues --   -0.57200  -0.56448  -0.55801  -0.55164  -0.54210
 Alpha  occ. eigenvalues --   -0.53573  -0.52676  -0.52492  -0.52473  -0.51905
 Alpha  occ. eigenvalues --   -0.51556  -0.51001  -0.50681  -0.49893  -0.49522
 Alpha  occ. eigenvalues --   -0.49165  -0.48858  -0.48213  -0.48137  -0.47981
 Alpha  occ. eigenvalues --   -0.47696  -0.47481  -0.46931  -0.46414  -0.46103
 Alpha  occ. eigenvalues --   -0.44894  -0.44741  -0.44168  -0.43854  -0.43268
 Alpha  occ. eigenvalues --   -0.42539  -0.42159  -0.41377  -0.41286  -0.41084
 Alpha  occ. eigenvalues --   -0.40906  -0.40503  -0.39992  -0.39788  -0.39272
 Alpha  occ. eigenvalues --   -0.39247  -0.39082  -0.38429  -0.38004  -0.37620
 Alpha  occ. eigenvalues --   -0.37386  -0.36751  -0.36543  -0.35782  -0.34920
 Alpha  occ. eigenvalues --   -0.34398  -0.34001  -0.31667  -0.31144  -0.29779
 Alpha  occ. eigenvalues --   -0.28870  -0.28606  -0.27670  -0.24752  -0.24345
 Alpha virt. eigenvalues --   -0.01529   0.00390   0.03535   0.03741   0.10129
 Alpha virt. eigenvalues --    0.10950   0.11635   0.12242   0.13158   0.13477
 Alpha virt. eigenvalues --    0.14225   0.14537   0.14756   0.15221   0.15600

 Mulliken charges:
               1
     1  C   -0.306290
     2  C   -0.307207
     3  C   -0.309140
     4  C   -0.060300
     5  C    0.056226
     6  C   -0.311200
     7  H    0.174135
     8  H    0.162923
     9  H    0.165644
    10  H    0.150897
    11  H    0.163555
    12  H    0.209108
    13  H    0.173340
    14  H    0.193464
    15  H    0.163539
    16  H    0.154430
    17  N   -0.430832
    18  C    0.067383
    19  C    0.064291
    20  C   -0.201459
    21  H    0.206266
    22  C   -0.209515
    23  H    0.244900
    24  C    0.445867
    25  H    0.192229
    26  H    0.211445
    27  N   -0.525643
    28  C   -0.170303
    29  H    0.169731
    30  H    0.228374
    31  C   -0.154693
    32  H    0.165022
    33  H    0.206755
    34  N   -0.814481
    35  S    1.252476
    36  O   -0.611214
    37  O   -0.605218
    38  C    0.083008
    39  C   -0.185642
    40  C   -0.189982
    41  C   -0.171508
    42  C   -0.163781
    43  C   -0.211899
    44  H    0.213520
    45  H    0.140435
    46  H    0.154943
    47  H    0.158595
    48  H    0.152445
    49  O   -0.552048
    50  H    0.447772
    51  C    0.723366
    52  O   -0.721026
    53  O   -0.717741
    54  H    0.443747
    55  C   -0.338392
    56  H    0.148302
    57  H    0.151230
    58  C   -0.090219
    59  H    0.139343
    60  H    0.147904
    61  C   -0.663440
    62  H    0.274645
    63  H    0.196441
    64  H    0.217737
    65  C   -0.291736
    66  H    0.134432
    67  H    0.146097
    68  C   -0.473260
    69  H    0.148748
    70  H    0.154090
    71  H    0.145716
    72  C   -0.331998
    73  H    0.186896
    74  H    0.162816
    75  C   -0.342917
    76  H    0.197944
    77  H    0.170908
 Sum of Mulliken charges =  -0.00000

 Dipole moment (field-independent basis, Debye):
    X=             -2.6574    Y=             -1.9890    Z=             -6.3111  Tot=              7.1308
 Quadrupole moment (field-independent basis, Debye-Ang):
   XX=           -205.9802   YY=           -222.4836   ZZ=           -220.0599
   XY=            -12.5092   XZ=             -5.1813   YZ=             10.0872

 Normal termination of Gaussian 16 at Thu Feb  7 14:08:28 2019.
