 Gaussian 16, Revision A.03,
 Gaussian 16:  ES64L-G16RevA.03 25-Dec-2016

 ------------------------------------------
 #p M062X/6-31G* em=gd3 force int=ultrafine
 ------------------------------------------

 -----
 Title
 -----
 Symbolic Z-matrix:
 Charge =  0 Multiplicity = 1

                         Standard orientation:
 ---------------------------------------------------------------------
 Center     Atomic      Atomic             Coordinates (Angstroms)
 Number     Number       Type             X           Y           Z
 ---------------------------------------------------------------------
      1          6           0       -4.783581    0.311599   -0.675104
      2          6           0       -4.913784   -1.000492   -1.454368
      3          6           0       -3.556435   -1.435228   -2.020258
      4          6           0       -2.573458   -1.592613   -0.865928
      5          6           0       -2.397482   -0.254167   -0.101812
      6          6           0       -3.752517    0.201415    0.452460
      7          1           0       -3.638263   -2.373311   -2.579803
      8          1           0       -5.297053   -1.787309   -0.791518
      9          1           0       -5.634330   -0.890918   -2.270955
     10          1           0       -4.476446    1.108622   -1.364786
     11          1           0       -5.755528    0.600607   -0.262019
     12          1           0       -2.954286   -2.343892   -0.167081
     13          1           0       -2.075557    0.492953   -0.838814
     14          1           0       -4.099947   -0.512118    1.206855
     15          1           0       -3.613122    1.172600    0.938723
     16          1           0       -3.209054   -0.658142   -2.714435
     17          7           0       -1.227714   -2.055694   -1.263141
     18          6           0       -0.542134   -1.411006   -2.243446
     19          6           0       -0.528995   -2.789306   -0.355188
     20          6           0        0.816004   -1.443678   -2.321791
     21          1           0       -1.137323   -0.841001   -2.946005
     22          6           0        0.829852   -2.844179   -0.350016
     23          1           0       -1.121296   -3.273918    0.413368
     24          6           0        1.567948   -2.065095   -1.280502
     25          1           0        1.305288   -0.910930   -3.125665
     26          1           0        1.316104   -3.383342    0.450646
     27          7           0        2.886661   -1.930472   -1.188211
     28          6           0        3.610169   -2.287315    0.042489
     29          1           0        3.510048   -3.355864    0.252076
     30          1           0        3.191706   -1.695032    0.870179
     31          6           0        3.609573   -0.911321   -1.958391
     32          1           0        3.860938   -1.300652   -2.952655
     33          1           0        2.974730   -0.026579   -2.060578
     34          7           0       -1.307291   -0.298612    0.859689
     35         16           0       -1.391479   -1.111191    2.268689
     36          8           0       -2.575709   -1.975871    2.241939
     37          8           0       -0.095813   -1.747851    2.523530
     38          6           0       -0.652223    2.706271    0.032951
     39          6           0       -0.179455    2.245353   -1.205522
     40          6           0       -0.978912    2.318368   -2.344054
     41          6           0       -2.269643    2.844004   -2.277877
     42          6           0       -2.754404    3.295969   -1.054228
     43          6           0       -1.947228    3.228436    0.081910
     44          1           0        0.796875    1.778211   -1.248656
     45          1           0       -0.585380    1.967902   -3.295647
     46          1           0       -2.887652    2.904895   -3.169501
     47          1           0       -3.757549    3.706975   -0.981892
     48          1           0       -2.332966    3.596913    1.030485
     49          8           0        0.668547    1.600979    1.898185
     50          1           0       -0.312069   -0.055048    0.558301
     51          6           0        1.787159    0.853820    1.254424
     52          8           0        1.362540    0.238707    0.168138
     53          8           0        2.179076   -0.020530    2.297575
     54          1           0        1.468593   -0.684417    2.356863
     55          6           0        3.006472    1.803167    1.100434
     56          1           0        2.988583    2.533201    1.919803
     57          1           0        3.888026    1.177789    1.286187
     58          6           0        0.208174    2.780538    1.297417
     59          1           0       -0.403354    3.274416    2.063666
     60          1           0        1.049248    3.460553    1.097263
     61          6           0       -1.606387    0.134399    3.518744
     62          1           0       -0.747130    0.804526    3.426919
     63          1           0       -2.544587    0.655893    3.321185
     64          1           0       -1.634567   -0.366331    4.487918
     65          6           0        3.186087    2.507115   -0.241592
     66          1           0        3.101087    1.765041   -1.043616
     67          1           0        2.384103    3.230355   -0.426051
     68          6           0        4.531626    3.224387   -0.331214
     69          1           0        4.661859    3.725616   -1.295415
     70          1           0        4.623798    3.980576    0.455780
     71          1           0        5.361782    2.519561   -0.203069
     72          6           0        5.045427   -1.883414   -0.278082
     73          1           0        5.630334   -1.709687    0.627053
     74          1           0        5.536866   -2.666324   -0.865906
     75          6           0        4.854631   -0.616256   -1.115956
     76          1           0        4.640323    0.226021   -0.453704
     77          1           0        5.721211   -0.364012   -1.730827
 ---------------------------------------------------------------------

 SCF Done:  E(RM062X) =  -1991.35894742     A.U. after   14 cycles

 The electronic state is 1-A.
 Alpha  occ. eigenvalues --  -90.14042 -19.61661 -19.61647 -19.58791 -19.56743
 Alpha  occ. eigenvalues --  -19.51398 -14.85119 -14.80460 -14.75447 -10.63376
 Alpha  occ. eigenvalues --  -10.62749 -10.62336 -10.62054 -10.60646 -10.59200
 Alpha  occ. eigenvalues --  -10.58738 -10.57907 -10.57881 -10.57050 -10.56858
 Alpha  occ. eigenvalues --  -10.56652 -10.55598 -10.55576 -10.55205 -10.55060
 Alpha  occ. eigenvalues --  -10.54744 -10.54708 -10.54627 -10.54471 -10.54309
 Alpha  occ. eigenvalues --  -10.54232 -10.54177 -10.53092 -10.51686 -10.51581
 Alpha  occ. eigenvalues --  -10.49805  -8.45021  -6.37236  -6.37215  -6.37059
 Alpha  occ. eigenvalues --   -1.21874  -1.13672  -1.13458  -1.10121  -1.09360
 Alpha  occ. eigenvalues --   -1.05917  -1.01574  -0.99423  -0.95672  -0.94925
 Alpha  occ. eigenvalues --   -0.93453  -0.90226  -0.88756  -0.85933  -0.85807
 Alpha  occ. eigenvalues --   -0.84776  -0.84636  -0.84342  -0.83000  -0.82594
 Alpha  occ. eigenvalues --   -0.76637  -0.76381  -0.75830  -0.74392  -0.72695
 Alpha  occ. eigenvalues --   -0.71554  -0.68347  -0.68295  -0.67905  -0.67141
 Alpha  occ. eigenvalues --   -0.66755  -0.65180  -0.64863  -0.63521  -0.60581
 Alpha  occ. eigenvalues --   -0.60406  -0.59801  -0.58819  -0.57846  -0.57543
 Alpha  occ. eigenvalues --   -0.57120  -0.56417  -0.55685  -0.55155  -0.54165
 Alpha  occ. eigenvalues --   -0.53438  -0.52625  -0.52383  -0.52341  -0.51859
 Alpha  occ. eigenvalues --   -0.51516  -0.51096  -0.50955  -0.49838  -0.49595
 Alpha  occ. eigenvalues --   -0.49164  -0.48799  -0.48209  -0.48109  -0.48061
 Alpha  occ. eigenvalues --   -0.47613  -0.47420  -0.46891  -0.46473  -0.46089
 Alpha  occ. eigenvalues --   -0.44934  -0.44653  -0.44073  -0.43881  -0.43246
 Alpha  occ. eigenvalues --   -0.42431  -0.42072  -0.41578  -0.41439  -0.41204
 Alpha  occ. eigenvalues --   -0.40876  -0.40436  -0.40025  -0.39858  -0.39524
 Alpha  occ. eigenvalues --   -0.39239  -0.39035  -0.38433  -0.37866  -0.37575
 Alpha  occ. eigenvalues --   -0.37343  -0.36728  -0.36566  -0.35670  -0.34867
 Alpha  occ. eigenvalues --   -0.34338  -0.33871  -0.31762  -0.30956  -0.29696
 Alpha  occ. eigenvalues --   -0.28880  -0.28536  -0.27557  -0.24998  -0.24533
 Alpha virt. eigenvalues --   -0.01394   0.00506   0.03638   0.03856   0.10217
 Alpha virt. eigenvalues --    0.11066   0.11553   0.12078   0.13219   0.13543
 Alpha virt. eigenvalues --    0.14217   0.14680   0.14829   0.15374   0.15602

 Mulliken charges:
               1
     1  C   -0.306049
     2  C   -0.306871
     3  C   -0.310358
     4  C   -0.058966
     5  C    0.056922
     6  C   -0.311739
     7  H    0.173713
     8  H    0.162884
     9  H    0.165043
    10  H    0.150419
    11  H    0.162871
    12  H    0.208348
    13  H    0.172358
    14  H    0.193800
    15  H    0.163261
    16  H    0.153623
    17  N   -0.432778
    18  C    0.070375
    19  C    0.064904
    20  C   -0.205730
    21  H    0.207064
    22  C   -0.209316
    23  H    0.245872
    24  C    0.451656
    25  H    0.190715
    26  H    0.211758
    27  N   -0.529738
    28  C   -0.176484
    29  H    0.169988
    30  H    0.237512
    31  C   -0.154046
    32  H    0.168589
    33  H    0.200257
    34  N   -0.817348
    35  S    1.253969
    36  O   -0.611582
    37  O   -0.609659
    38  C    0.091844
    39  C   -0.177257
    40  C   -0.188681
    41  C   -0.170435
    42  C   -0.163605
    43  C   -0.212079
    44  H    0.202338
    45  H    0.141395
    46  H    0.154445
    47  H    0.158101
    48  H    0.151956
    49  O   -0.547700
    50  H    0.449846
    51  C    0.728394
    52  O   -0.724643
    53  O   -0.718106
    54  H    0.445843
    55  C   -0.337394
    56  H    0.150384
    57  H    0.147999
    58  C   -0.095104
    59  H    0.141403
    60  H    0.146545
    61  C   -0.662598
    62  H    0.270444
    63  H    0.196298
    64  H    0.217299
    65  C   -0.295905
    66  H    0.141846
    67  H    0.147087
    68  C   -0.476203
    69  H    0.149612
    70  H    0.156401
    71  H    0.143935
    72  C   -0.331890
    73  H    0.187545
    74  H    0.163823
    75  C   -0.344501
    76  H    0.194041
    77  H    0.172043
 Sum of Mulliken charges =  -0.00000

 Dipole moment (field-independent basis, Debye):
    X=             -2.0277    Y=             -1.9516    Z=             -6.4980  Tot=              7.0812
 Quadrupole moment (field-independent basis, Debye-Ang):
   XX=           -204.5745   YY=           -223.1775   ZZ=           -219.9692
   XY=            -12.0952   XZ=             -5.1599   YZ=             10.2427

 Normal termination of Gaussian 16 at Thu Feb  7 17:22:15 2019.
