 Gaussian 16, Revision A.03,
 Gaussian 16:  ES64L-G16RevA.03 25-Dec-2016

 ------------------------------------------
 #p M062X/6-31G* em=gd3 force int=ultrafine
 ------------------------------------------

 -----
 Title
 -----
 Symbolic Z-matrix:
 Charge =  0 Multiplicity = 1

                         Standard orientation:
 ---------------------------------------------------------------------
 Center     Atomic      Atomic             Coordinates (Angstroms)
 Number     Number       Type             X           Y           Z
 ---------------------------------------------------------------------
      1          6           0       -4.781348    0.400008   -0.561875
      2          6           0       -4.957800   -0.885907   -1.375055
      3          6           0       -3.624640   -1.331486   -1.988659
      4          6           0       -2.617147   -1.541728   -0.864447
      5          6           0       -2.393981   -0.229062   -0.069035
      6          6           0       -3.723178    0.238755    0.534197
      7          1           0       -3.740724   -2.251607   -2.571357
      8          1           0       -5.340250   -1.684162   -0.725472
      9          1           0       -5.696713   -0.737956   -2.168822
     10          1           0       -4.476358    1.210571   -1.236503
     11          1           0       -5.736257    0.695444   -0.115058
     12          1           0       -2.996370   -2.304489   -0.177452
     13          1           0       -2.076986    0.531885   -0.793689
     14          1           0       -4.064502   -0.487282    1.279723
     15          1           0       -3.550046    1.194072    1.040994
     16          1           0       -3.277913   -0.542620   -2.669854
     17          7           0       -1.290091   -2.019009   -1.305866
     18          6           0       -0.605247   -1.338774   -2.263173
     19          6           0       -0.592027   -2.802369   -0.440388
     20          6           0        0.751621   -1.382306   -2.354848
     21          1           0       -1.199939   -0.728181   -2.931435
     22          6           0        0.766018   -2.876976   -0.453502
     23          1           0       -1.182468   -3.310061    0.314675
     24          6           0        1.505557   -2.061801   -1.351467
     25          1           0        1.240705   -0.816661   -3.136175
     26          1           0        1.252545   -3.459716    0.315705
     27          7           0        2.825546   -1.942675   -1.261137
     28          6           0        3.550509   -2.365614   -0.052631
     29          1           0        3.444639   -3.442532    0.104343
     30          1           0        3.139253   -1.810445    0.803511
     31          6           0        3.549544   -0.881921   -1.973780
     32          1           0        3.801370   -1.215908   -2.987794
     33          1           0        2.914487    0.006860   -2.021700
     34          7           0       -1.280188   -0.322380    0.861385
     35         16           0       -1.339523   -1.174247    2.249104
     36          8           0       -2.532753   -2.026380    2.220539
     37          8           0       -0.043687   -1.827401    2.454277
     38          6           0       -0.622348    2.696111    0.055466
     39          6           0       -0.148139    2.226607   -1.179566
     40          6           0       -0.935721    2.319584   -2.325313
     41          6           0       -2.214468    2.874946   -2.271112
     42          6           0       -2.699187    3.338687   -1.051508
     43          6           0       -1.905112    3.249965    0.092267
     44          1           0        0.817474    1.735541   -1.212727
     45          1           0       -0.541021    1.961445   -3.273827
     46          1           0       -2.822295    2.951148   -3.168526
     47          1           0       -3.692226    3.775311   -0.988343
     48          1           0       -2.291383    3.626966    1.037303
     49          8           0        0.688658    1.554731    1.906235
     50          1           0       -0.294096   -0.071214    0.553849
     51          6           0        1.824699    0.828995    1.262251
     52          8           0        1.418261    0.222570    0.164989
     53          8           0        2.215081   -0.055664    2.296916
     54          1           0        1.519407   -0.737884    2.324515
     55          6           0        3.028553    1.800364    1.135720
     56          1           0        2.989571    2.517230    1.965959
     57          1           0        3.921072    1.188842    1.319396
     58          6           0        0.222634    2.744377    1.331992
     59          1           0       -0.403833    3.210694    2.103528
     60          1           0        1.057576    3.439992    1.160573
     61          6           0       -1.516718    0.033389    3.541483
     62          1           0       -0.654982    0.700669    3.451649
     63          1           0       -2.455163    0.567166    3.381706
     64          1           0       -1.527490   -0.498138    4.494468
     65          6           0        3.203726    2.530022   -0.193059
     66          1           0        3.169549    1.798911   -1.007402
     67          1           0        2.375055    3.219191   -0.384690
     68          6           0        4.520010    3.303622   -0.243076
     69          1           0        4.649953    3.823635   -1.197324
     70          1           0        4.564119    4.052149    0.556826
     71          1           0        5.375170    2.629773   -0.106086
     72          6           0        4.986003   -1.950719   -0.355540
     73          1           0        5.576014   -1.833856    0.555289
     74          1           0        5.470388   -2.699291   -0.992053
     75          6           0        4.793358   -0.635368   -1.114471
     76          1           0        4.573060    0.162691   -0.401178
     77          1           0        5.659585   -0.343034   -1.711743
 ---------------------------------------------------------------------

 SCF Done:  E(RM062X) =  -1991.35877188     A.U. after   14 cycles

 The electronic state is 1-A.
 Alpha  occ. eigenvalues --  -90.14117 -19.61731 -19.61710 -19.58735 -19.56722
 Alpha  occ. eigenvalues --  -19.51340 -14.85150 -14.80452 -14.75617 -10.63408
 Alpha  occ. eigenvalues --  -10.62780 -10.62296 -10.62143 -10.60694 -10.59285
 Alpha  occ. eigenvalues --  -10.58559 -10.57976 -10.57914 -10.57123 -10.56887
 Alpha  occ. eigenvalues --  -10.56672 -10.55636 -10.55586 -10.55136 -10.54910
 Alpha  occ. eigenvalues --  -10.54818 -10.54755 -10.54701 -10.54550 -10.54378
 Alpha  occ. eigenvalues --  -10.54301 -10.54274 -10.53093 -10.51605 -10.51495
 Alpha  occ. eigenvalues --  -10.49749  -8.45095  -6.37311  -6.37289  -6.37132
 Alpha  occ. eigenvalues --   -1.21945  -1.13616  -1.13501  -1.10199  -1.09349
 Alpha  occ. eigenvalues --   -1.05898  -1.01667  -0.99368  -0.95716  -0.94976
 Alpha  occ. eigenvalues --   -0.93475  -0.90277  -0.88751  -0.85885  -0.85821
 Alpha  occ. eigenvalues --   -0.84814  -0.84683  -0.84271  -0.83046  -0.82655
 Alpha  occ. eigenvalues --   -0.76655  -0.76318  -0.75833  -0.74389  -0.72751
 Alpha  occ. eigenvalues --   -0.71611  -0.68328  -0.68256  -0.67934  -0.67177
 Alpha  occ. eigenvalues --   -0.66759  -0.65216  -0.64871  -0.63521  -0.60574
 Alpha  occ. eigenvalues --   -0.60403  -0.59793  -0.58935  -0.57812  -0.57576
 Alpha  occ. eigenvalues --   -0.57155  -0.56430  -0.55752  -0.55166  -0.54181
 Alpha  occ. eigenvalues --   -0.53509  -0.52645  -0.52424  -0.52393  -0.51900
 Alpha  occ. eigenvalues --   -0.51540  -0.51052  -0.50861  -0.49859  -0.49585
 Alpha  occ. eigenvalues --   -0.49158  -0.48818  -0.48203  -0.48121  -0.48056
 Alpha  occ. eigenvalues --   -0.47648  -0.47446  -0.46900  -0.46457  -0.46098
 Alpha  occ. eigenvalues --   -0.44895  -0.44711  -0.44119  -0.43881  -0.43254
 Alpha  occ. eigenvalues --   -0.42480  -0.42105  -0.41459  -0.41373  -0.41150
 Alpha  occ. eigenvalues --   -0.40889  -0.40462  -0.40004  -0.39834  -0.39390
 Alpha  occ. eigenvalues --   -0.39257  -0.39055  -0.38454  -0.37917  -0.37585
 Alpha  occ. eigenvalues --   -0.37380  -0.36734  -0.36573  -0.35707  -0.34890
 Alpha  occ. eigenvalues --   -0.34374  -0.33926  -0.31696  -0.31041  -0.29756
 Alpha  occ. eigenvalues --   -0.28887  -0.28591  -0.27618  -0.24937  -0.24479
 Alpha virt. eigenvalues --   -0.01489   0.00433   0.03574   0.03781   0.10156
 Alpha virt. eigenvalues --    0.11031   0.11640   0.12145   0.13199   0.13540
 Alpha virt. eigenvalues --    0.14199   0.14650   0.14773   0.15266   0.15599

 Mulliken charges:
               1
     1  C   -0.306183
     2  C   -0.307005
     3  C   -0.309656
     4  C   -0.059717
     5  C    0.057134
     6  C   -0.311824
     7  H    0.173814
     8  H    0.162769
     9  H    0.165319
    10  H    0.150991
    11  H    0.163101
    12  H    0.208686
    13  H    0.172749
    14  H    0.193091
    15  H    0.163539
    16  H    0.154011
    17  N   -0.431016
    18  C    0.068254
    19  C    0.063671
    20  C   -0.203109
    21  H    0.206739
    22  C   -0.208883
    23  H    0.245662
    24  C    0.447347
    25  H    0.191507
    26  H    0.211666
    27  N   -0.527131
    28  C   -0.172769
    29  H    0.169806
    30  H    0.232464
    31  C   -0.154390
    32  H    0.166969
    33  H    0.203130
    34  N   -0.816727
    35  S    1.253894
    36  O   -0.612268
    37  O   -0.607997
    38  C    0.087371
    39  C   -0.181401
    40  C   -0.189307
    41  C   -0.170808
    42  C   -0.163681
    43  C   -0.212181
    44  H    0.207491
    45  H    0.140829
    46  H    0.154805
    47  H    0.158524
    48  H    0.152463
    49  O   -0.549008
    50  H    0.449285
    51  C    0.726500
    52  O   -0.723541
    53  O   -0.718166
    54  H    0.445458
    55  C   -0.338352
    56  H    0.149559
    57  H    0.150278
    58  C   -0.092958
    59  H    0.140770
    60  H    0.147272
    61  C   -0.663026
    62  H    0.272219
    63  H    0.196272
    64  H    0.217431
    65  C   -0.294572
    66  H    0.139293
    67  H    0.146884
    68  C   -0.474245
    69  H    0.149205
    70  H    0.155307
    71  H    0.143781
    72  C   -0.331789
    73  H    0.187484
    74  H    0.163252
    75  C   -0.343612
    76  H    0.195888
    77  H    0.171388
 Sum of Mulliken charges =  -0.00000

 Dipole moment (field-independent basis, Debye):
    X=             -2.3712    Y=             -1.8476    Z=             -6.4249  Tot=              7.0934
 Quadrupole moment (field-independent basis, Debye-Ang):
   XX=           -205.3424   YY=           -223.1739   ZZ=           -219.7465
   XY=            -12.1971   XZ=             -5.3958   YZ=             10.0100

 Normal termination of Gaussian 16 at Thu Feb  7 15:53:33 2019.
