 Gaussian 16, Revision A.03,
 Gaussian 16:  ES64L-G16RevA.03 25-Dec-2016

 ------------------------------------------
 #p M062X/6-31G* em=gd3 force int=ultrafine
 ------------------------------------------

 -----
 Title
 -----
 Symbolic Z-matrix:
 Charge =  0 Multiplicity = 1

                         Standard orientation:
 ---------------------------------------------------------------------
 Center     Atomic      Atomic             Coordinates (Angstroms)
 Number     Number       Type             X           Y           Z
 ---------------------------------------------------------------------
      1          6           0       -4.843046    0.527908   -0.521130
      2          6           0       -5.014225   -0.739050   -1.364288
      3          6           0       -3.671915   -1.185891   -1.956147
      4          6           0       -2.685790   -1.440095   -0.820482
      5          6           0       -2.485114   -0.158804    0.024585
      6          6           0       -3.821849    0.319251    0.600104
      7          1           0       -3.784502   -2.087520   -2.567546
      8          1           0       -5.421616   -1.544955   -0.739801
      9          1           0       -5.731364   -0.567227   -2.172948
     10          1           0       -4.499041    1.346581   -1.168072
     11          1           0       -5.805775    0.833521   -0.099086
     12          1           0       -3.077289   -2.229371   -0.170575
     13          1           0       -2.126609    0.617739   -0.663834
     14          1           0       -4.193162   -0.416379    1.322095
     15          1           0       -3.641018    1.259164    1.134457
     16          1           0       -3.301698   -0.381664   -2.606130
     17          7           0       -1.354052   -1.905598   -1.264352
     18          6           0       -0.669969   -1.230688   -2.225504
     19          6           0       -0.659116   -2.724595   -0.431606
     20          6           0        0.681113   -1.323986   -2.360992
     21          1           0       -1.258589   -0.585979   -2.865216
     22          6           0        0.693691   -2.858547   -0.495281
     23          1           0       -1.244335   -3.229104    0.329383
     24          6           0        1.442150   -2.072564   -1.414131
     25          1           0        1.167565   -0.759273   -3.145234
     26          1           0        1.177807   -3.483117    0.242102
     27          7           0        2.770298   -2.046789   -1.391519
     28          6           0        3.510997   -2.581447   -0.238267
     29          1           0        3.366948   -3.662411   -0.153535
     30          1           0        3.144966   -2.072815    0.664660
     31          6           0        3.541737   -0.996187   -2.078190
     32          1           0        3.795267   -1.324059   -3.094120
     33          1           0        2.952381   -0.077093   -2.104294
     34          7           0       -1.402445   -0.311828    0.979263
     35         16           0       -1.438329   -1.216827    2.332894
     36          8           0       -2.657457   -2.027814    2.286527
     37          8           0       -0.156536   -1.908933    2.475762
     38          6           0       -0.563110    2.701170   -0.060340
     39          6           0       -0.046774    2.077177   -1.203562
     40          6           0       -0.733465    2.158615   -2.414338
     41          6           0       -1.952189    2.831884   -2.501181
     42          6           0       -2.479175    3.438484   -1.362387
     43          6           0       -1.783791    3.374976   -0.155109
     44          1           0        0.869184    1.492917   -1.103728
     45          1           0       -0.310484    1.692491   -3.302209
     46          1           0       -2.483277    2.890123   -3.447188
     47          1           0       -3.429154    3.963249   -1.414577
     48          1           0       -2.199982    3.852230    0.729954
     49          8           0        0.613564    1.355767    1.631843
     50          1           0       -0.551569    0.292708    0.942440
     51          6           0        2.057794    0.724965    1.201245
     52          8           0        1.958178    0.180561    0.048966
     53          8           0        2.220519   -0.149546    2.286558
     54          1           0        1.551914   -0.848262    2.164564
     55          6           0        3.089134    1.849647    1.382681
     56          1           0        2.802469    2.494447    2.222397
     57          1           0        4.022405    1.356663    1.685541
     58          6           0        0.178091    2.632855    1.269221
     59          1           0       -0.509689    2.991169    2.052712
     60          1           0        1.012476    3.350203    1.254198
     61          6           0       -1.513970   -0.038714    3.664415
     62          1           0       -0.643102    0.611030    3.530580
     63          1           0       -2.449191    0.517338    3.582854
     64          1           0       -1.461295   -0.586381    4.606561
     65          6           0        3.347031    2.663830    0.117589
     66          1           0        3.705395    1.988018   -0.667286
     67          1           0        2.412866    3.086236   -0.271131
     68          6           0        4.355371    3.785312    0.354318
     69          1           0        4.556890    4.350469   -0.560910
     70          1           0        3.986003    4.489414    1.108419
     71          1           0        5.307239    3.384522    0.720235
     72          6           0        4.953087   -2.190987   -0.540340
     73          1           0        5.563147   -2.160577    0.364319
     74          1           0        5.402386   -2.904253   -1.240530
     75          6           0        4.778463   -0.819806   -1.194742
     76          1           0        4.533072   -0.083178   -0.424459
     77          1           0        5.651916   -0.486436   -1.759214
 ---------------------------------------------------------------------

 SCF Done:  E(RM062X) =  -1991.35540695     A.U. after   15 cycles

 The electronic state is 1-A.
 Alpha  occ. eigenvalues --  -90.14577 -19.62270 -19.61937 -19.58171 -19.57442
 Alpha  occ. eigenvalues --  -19.51251 -14.85178 -14.80103 -14.76117 -10.63188
 Alpha  occ. eigenvalues --  -10.62614 -10.62520 -10.62127 -10.61024 -10.59744
 Alpha  occ. eigenvalues --  -10.57869 -10.57779 -10.57774 -10.56989 -10.56885
 Alpha  occ. eigenvalues --  -10.56831 -10.56337 -10.55822 -10.55079 -10.55025
 Alpha  occ. eigenvalues --  -10.55003 -10.54858 -10.54767 -10.54637 -10.54634
 Alpha  occ. eigenvalues --  -10.54363 -10.54151 -10.53103 -10.51145 -10.51051
 Alpha  occ. eigenvalues --  -10.49750  -8.45556  -6.37781  -6.37729  -6.37609
 Alpha  occ. eigenvalues --   -1.22384  -1.13441  -1.12784  -1.10581  -1.08936
 Alpha  occ. eigenvalues --   -1.05946  -1.02207  -1.00766  -0.95792  -0.95155
 Alpha  occ. eigenvalues --   -0.93473  -0.90119  -0.88592  -0.86441  -0.85484
 Alpha  occ. eigenvalues --   -0.84826  -0.84784  -0.83811  -0.83281  -0.82971
 Alpha  occ. eigenvalues --   -0.76575  -0.76127  -0.75581  -0.73974  -0.73162
 Alpha  occ. eigenvalues --   -0.71723  -0.68215  -0.68100  -0.67775  -0.67457
 Alpha  occ. eigenvalues --   -0.66398  -0.65442  -0.64855  -0.63337  -0.60503
 Alpha  occ. eigenvalues --   -0.60342  -0.59932  -0.59365  -0.57939  -0.57674
 Alpha  occ. eigenvalues --   -0.57176  -0.56355  -0.55591  -0.54979  -0.54335
 Alpha  occ. eigenvalues --   -0.53526  -0.52984  -0.52607  -0.52366  -0.52069
 Alpha  occ. eigenvalues --   -0.51628  -0.50884  -0.50161  -0.49969  -0.49426
 Alpha  occ. eigenvalues --   -0.49208  -0.48884  -0.48505  -0.48185  -0.48054
 Alpha  occ. eigenvalues --   -0.47705  -0.47607  -0.47117  -0.46339  -0.45897
 Alpha  occ. eigenvalues --   -0.45362  -0.45172  -0.44390  -0.44154  -0.43182
 Alpha  occ. eigenvalues --   -0.42468  -0.42317  -0.41222  -0.40956  -0.40775
 Alpha  occ. eigenvalues --   -0.40602  -0.40418  -0.40153  -0.39898  -0.39454
 Alpha  occ. eigenvalues --   -0.39040  -0.39006  -0.38711  -0.38233  -0.37688
 Alpha  occ. eigenvalues --   -0.37490  -0.36572  -0.36432  -0.35959  -0.35035
 Alpha  occ. eigenvalues --   -0.34617  -0.34299  -0.32035  -0.31118  -0.29954
 Alpha  occ. eigenvalues --   -0.29133  -0.28740  -0.27827  -0.24754  -0.24303
 Alpha virt. eigenvalues --   -0.01252   0.00568   0.03247   0.03665   0.10197
 Alpha virt. eigenvalues --    0.10631   0.11397   0.12524   0.13187   0.13331
 Alpha virt. eigenvalues --    0.14187   0.14393   0.15102   0.15528   0.15545

 Mulliken charges:
               1
     1  C   -0.306647
     2  C   -0.307756
     3  C   -0.311634
     4  C   -0.061169
     5  C    0.066096
     6  C   -0.306866
     7  H    0.175096
     8  H    0.163177
     9  H    0.166596
    10  H    0.152123
    11  H    0.164623
    12  H    0.208128
    13  H    0.173791
    14  H    0.191400
    15  H    0.160059
    16  H    0.156756
    17  N   -0.436872
    18  C    0.082247
    19  C    0.082960
    20  C   -0.212459
    21  H    0.203043
    22  C   -0.222527
    23  H    0.244744
    24  C    0.448219
    25  H    0.192129
    26  H    0.209592
    27  N   -0.519133
    28  C   -0.163207
    29  H    0.167930
    30  H    0.218648
    31  C   -0.145321
    32  H    0.161047
    33  H    0.205282
    34  N   -0.814993
    35  S    1.237231
    36  O   -0.605143
    37  O   -0.593339
    38  C    0.049673
    39  C   -0.198423
    40  C   -0.192754
    41  C   -0.172747
    42  C   -0.164931
    43  C   -0.205484
    44  H    0.235228
    45  H    0.140597
    46  H    0.156048
    47  H    0.159734
    48  H    0.154451
    49  O   -0.613830
    50  H    0.453032
    51  C    0.711303
    52  O   -0.673963
    53  O   -0.696903
    54  H    0.434903
    55  C   -0.338657
    56  H    0.146462
    57  H    0.150899
    58  C   -0.074915
    59  H    0.127093
    60  H    0.153892
    61  C   -0.666828
    62  H    0.265147
    63  H    0.200237
    64  H    0.223105
    65  C   -0.285631
    66  H    0.143485
    67  H    0.141837
    68  C   -0.475409
    69  H    0.148839
    70  H    0.149300
    71  H    0.148818
    72  C   -0.334551
    73  H    0.184264
    74  H    0.160706
    75  C   -0.338476
    76  H    0.205442
    77  H    0.165156
 Sum of Mulliken charges =  -0.00000

 Dipole moment (field-independent basis, Debye):
    X=             -3.2985    Y=             -1.4952    Z=             -5.7635  Tot=              6.8069
 Quadrupole moment (field-independent basis, Debye-Ang):
   XX=           -207.6750   YY=           -223.1441   ZZ=           -218.0839
   XY=            -13.6532   XZ=             -4.3631   YZ=             10.7851

 Normal termination of Gaussian 16 at Thu Feb  7 08:53:05 2019.
