 Gaussian 16, Revision A.03,
 Gaussian 16:  ES64L-G16RevA.03 25-Dec-2016

 ------------------------------------------
 #p M062X/6-31G* em=gd3 force int=ultrafine
 ------------------------------------------

 -----
 Title
 -----
 Symbolic Z-matrix:
 Charge =  0 Multiplicity = 1

                         Standard orientation:
 ---------------------------------------------------------------------
 Center     Atomic      Atomic             Coordinates (Angstroms)
 Number     Number       Type             X           Y           Z
 ---------------------------------------------------------------------
      1          6           0       -4.860914    0.023898   -0.407042
      2          6           0       -4.877669   -1.244195   -1.266054
      3          6           0       -3.491914   -1.516868   -1.863225
      4          6           0       -2.486452   -1.651599   -0.724488
      5          6           0       -2.410891   -0.344506    0.113105
      6          6           0       -3.802479   -0.057286    0.696934
      7          1           0       -3.496434   -2.422721   -2.480188
      8          1           0       -5.179652   -2.101930   -0.650738
      9          1           0       -5.613493   -1.153480   -2.071771
     10          1           0       -4.636357    0.886529   -1.050055
     11          1           0       -5.851850    0.195944    0.026637
     12          1           0       -2.787635   -2.472427   -0.068512
     13          1           0       -2.206962    0.452014   -0.617420
     14          1           0       -4.060129   -0.843611    1.417807
     15          1           0       -3.746969    0.892987    1.242286
     16          1           0       -3.225954   -0.668968   -2.509655
     17          7           0       -1.114753   -1.984334   -1.173533
     18          6           0       -0.512984   -1.263558   -2.147178
     19          6           0       -0.350317   -2.752052   -0.361587
     20          6           0        0.840040   -1.273870   -2.329363
     21          1           0       -1.163492   -0.653232   -2.760364
     22          6           0        1.008853   -2.811256   -0.480330
     23          1           0       -0.878436   -3.276236    0.427664
     24          6           0        1.670630   -1.993494   -1.427010
     25          1           0        1.263790   -0.681063   -3.129251
     26          1           0        1.554330   -3.403633    0.240863
     27          7           0        3.006170   -1.891381   -1.455036
     28          6           0        3.821630   -2.432063   -0.361245
     29          1           0        3.765385   -3.524525   -0.339406
     30          1           0        3.448450   -2.034802    0.593184
     31          6           0        3.689259   -0.786877   -2.144906
     32          1           0        3.935113   -1.077709   -3.173773
     33          1           0        3.044839    0.096013   -2.155024
     34          7           0       -1.289702   -0.305193    1.030688
     35         16           0       -1.249788   -1.276664    2.274855
     36          8           0       -2.228388   -2.385110    2.211799
     37          8           0        0.152181   -1.717246    2.513762
     38          6           0       -1.246947    2.827326   -0.175895
     39          6           0       -0.446162    2.214106   -1.143792
     40          6           0       -0.902036    2.104399   -2.456404
     41          6           0       -2.166600    2.571889   -2.812056
     42          6           0       -2.973398    3.168646   -1.844427
     43          6           0       -2.510483    3.297224   -0.537372
     44          1           0        0.508746    1.782652   -0.849549
     45          1           0       -0.265772    1.642954   -3.208400
     46          1           0       -2.521388    2.476226   -3.834058
     47          1           0       -3.963812    3.530308   -2.105648
     48          1           0       -3.144296    3.754990    0.219487
     49          8           0        0.161730    1.966759    1.608588
     50          1           0       -0.267229    1.096889    1.367056
     51          6           0        2.428862    0.669254    1.290346
     52          8           0        2.165888    0.220046    0.187229
     53          8           0        2.136774    0.056528    2.423813
     54          1           0        1.476159   -0.677596    2.280413
     55          6           0        3.179293    1.962187    1.508332
     56          1           0        2.722975    2.461575    2.367348
     57          1           0        4.210069    1.708480    1.796300
     58          6           0       -0.762844    2.954370    1.255159
     59          1           0       -1.638012    2.954818    1.924769
     60          1           0       -0.264556    3.924912    1.387649
     61          6           0       -1.652284   -0.294267    3.716816
     62          1           0       -0.963480    0.554007    3.730543
     63          1           0       -2.684170    0.048644    3.618469
     64          1           0       -1.531963   -0.909830    4.609369
     65          6           0        3.163789    2.859543    0.278087
     66          1           0        3.574974    2.312910   -0.579333
     67          1           0        2.119729    3.080734    0.030722
     68          6           0        3.937429    4.155601    0.499413
     69          1           0        3.914060    4.790481   -0.390921
     70          1           0        3.510263    4.727336    1.329856
     71          1           0        4.986771    3.954476    0.741496
     72          6           0        5.223081   -1.914698   -0.673548
     73          1           0        5.846180   -1.859179    0.221234
     74          1           0        5.715563   -2.573556   -1.396359
     75          6           0        4.941896   -0.545972   -1.298352
     76          1           0        4.696414    0.175398   -0.513075
     77          1           0        5.775053   -0.156903   -1.887192
 ---------------------------------------------------------------------

 SCF Done:  E(RM062X) =  -1991.39083133     A.U. after   15 cycles

 The electronic state is 1-A.
 Alpha  occ. eigenvalues --  -90.10415 -19.63413 -19.60130 -19.59374 -19.58652
 Alpha  occ. eigenvalues --  -19.58392 -14.84820 -14.80545 -14.69456 -10.65448
 Alpha  occ. eigenvalues --  -10.63248 -10.62372 -10.61543 -10.59171 -10.59157
 Alpha  occ. eigenvalues --  -10.59016 -10.57808 -10.57415 -10.56867 -10.56652
 Alpha  occ. eigenvalues --  -10.56103 -10.55788 -10.55477 -10.54968 -10.54924
 Alpha  occ. eigenvalues --  -10.54857 -10.54571 -10.54532 -10.54486 -10.53824
 Alpha  occ. eigenvalues --  -10.53727 -10.53561 -10.53107 -10.52880 -10.52662
 Alpha  occ. eigenvalues --  -10.52465  -8.41382  -6.33619  -6.33526  -6.33446
 Alpha  occ. eigenvalues --   -1.19153  -1.17949  -1.12955  -1.10409  -1.09861
 Alpha  occ. eigenvalues --   -1.09197  -1.06219  -0.97576  -0.95248  -0.94844
 Alpha  occ. eigenvalues --   -0.92200  -0.89862  -0.88611  -0.87961  -0.85029
 Alpha  occ. eigenvalues --   -0.84976  -0.83654  -0.83511  -0.83305  -0.80235
 Alpha  occ. eigenvalues --   -0.79064  -0.76377  -0.75676  -0.74677  -0.70956
 Alpha  occ. eigenvalues --   -0.70204  -0.69025  -0.68756  -0.68373  -0.67981
 Alpha  occ. eigenvalues --   -0.65709  -0.64728  -0.63969  -0.63446  -0.61677
 Alpha  occ. eigenvalues --   -0.60290  -0.59417  -0.58935  -0.58382  -0.56178
 Alpha  occ. eigenvalues --   -0.55513  -0.55159  -0.55076  -0.53983  -0.53660
 Alpha  occ. eigenvalues --   -0.53433  -0.53088  -0.52316  -0.51990  -0.51735
 Alpha  occ. eigenvalues --   -0.51187  -0.51024  -0.50613  -0.50308  -0.49836
 Alpha  occ. eigenvalues --   -0.49639  -0.49399  -0.48861  -0.48382  -0.48030
 Alpha  occ. eigenvalues --   -0.47762  -0.47172  -0.46965  -0.46841  -0.45962
 Alpha  occ. eigenvalues --   -0.45897  -0.45261  -0.43979  -0.43652  -0.43426
 Alpha  occ. eigenvalues --   -0.42761  -0.42431  -0.42296  -0.41928  -0.41844
 Alpha  occ. eigenvalues --   -0.41167  -0.40810  -0.40619  -0.39934  -0.39517
 Alpha  occ. eigenvalues --   -0.39385  -0.39164  -0.38678  -0.38376  -0.37765
 Alpha  occ. eigenvalues --   -0.37413  -0.36318  -0.35962  -0.35402  -0.35106
 Alpha  occ. eigenvalues --   -0.34436  -0.33182  -0.32147  -0.31678  -0.31521
 Alpha  occ. eigenvalues --   -0.29823  -0.28874  -0.28333  -0.27601  -0.25474
 Alpha virt. eigenvalues --   -0.01023   0.00643   0.03350   0.03837   0.09085
 Alpha virt. eigenvalues --    0.10095   0.10983   0.11690   0.13006   0.13368
 Alpha virt. eigenvalues --    0.13753   0.14160   0.15283   0.15585   0.15731

 Mulliken charges:
               1
     1  C   -0.304028
     2  C   -0.304231
     3  C   -0.309844
     4  C   -0.073695
     5  C    0.061696
     6  C   -0.305583
     7  H    0.165747
     8  H    0.160895
     9  H    0.159256
    10  H    0.146949
    11  H    0.156624
    12  H    0.213346
    13  H    0.141188
    14  H    0.180417
    15  H    0.148000
    16  H    0.151796
    17  N   -0.424757
    18  C    0.100785
    19  C    0.084862
    20  C   -0.228280
    21  H    0.206229
    22  C   -0.227189
    23  H    0.263761
    24  C    0.428916
    25  H    0.188322
    26  H    0.206604
    27  N   -0.530116
    28  C   -0.155998
    29  H    0.178427
    30  H    0.198690
    31  C   -0.147490
    32  H    0.169417
    33  H    0.196896
    34  N   -0.754665
    35  S    1.248522
    36  O   -0.646904
    37  O   -0.671417
    38  C    0.048566
    39  C   -0.176783
    40  C   -0.187038
    41  C   -0.170363
    42  C   -0.162889
    43  C   -0.196741
    44  H    0.199367
    45  H    0.140281
    46  H    0.156573
    47  H    0.161724
    48  H    0.155823
    49  O   -0.707800
    50  H    0.479082
    51  C    0.639695
    52  O   -0.524184
    53  O   -0.642278
    54  H    0.485532
    55  C   -0.366193
    56  H    0.199012
    57  H    0.163885
    58  C   -0.071022
    59  H    0.129977
    60  H    0.163382
    61  C   -0.654742
    62  H    0.217528
    63  H    0.188264
    64  H    0.208427
    65  C   -0.286749
    66  H    0.142603
    67  H    0.170524
    68  C   -0.480656
    69  H    0.158115
    70  H    0.158971
    71  H    0.149037
    72  C   -0.337555
    73  H    0.183667
    74  H    0.170114
    75  C   -0.335589
    76  H    0.183824
    77  H    0.173462
 Sum of Mulliken charges =  -0.00000

 Dipole moment (field-independent basis, Debye):
    X=              1.6006    Y=             -0.4165    Z=             -6.4656  Tot=              6.6738
 Quadrupole moment (field-independent basis, Debye-Ang):
   XX=           -197.3640   YY=           -224.3039   ZZ=           -221.2395
   XY=            -12.3484   XZ=             -1.7980   YZ=             12.1054

 Normal termination of Gaussian 16 at Fri Feb  8 02:05:35 2019.
