 Gaussian 16, Revision A.03,
 Gaussian 16:  ES64L-G16RevA.03 25-Dec-2016

 ------------------------------------------
 #p M062X/6-31G* em=gd3 force int=ultrafine
 ------------------------------------------

 -----
 Title
 -----
 Symbolic Z-matrix:
 Charge =  0 Multiplicity = 1

                         Standard orientation:
 ---------------------------------------------------------------------
 Center     Atomic      Atomic             Coordinates (Angstroms)
 Number     Number       Type             X           Y           Z
 ---------------------------------------------------------------------
      1          6           0       -4.825990    0.467816   -0.527262
      2          6           0       -5.023805   -0.846865   -1.288011
      3          6           0       -3.700982   -1.331307   -1.893580
      4          6           0       -2.682804   -1.508478   -0.772699
      5          6           0       -2.445173   -0.171801   -0.026438
      6          6           0       -3.763531    0.334200    0.568697
      7          1           0       -3.831012   -2.272434   -2.438399
      8          1           0       -5.410806   -1.614243   -0.604766
      9          1           0       -5.766867   -0.721860   -2.081861
     10          1           0       -4.514251    1.247685   -1.234851
     11          1           0       -5.774465    0.792874   -0.087494
     12          1           0       -3.057949   -2.245889   -0.056112
     13          1           0       -2.125249    0.560495   -0.778698
     14          1           0       -4.108715   -0.358261    1.343461
     15          1           0       -3.574310    1.305489    1.038568
     16          1           0       -3.352117   -0.574126   -2.608670
     17          7           0       -1.364816   -2.008097   -1.216441
     18          6           0       -0.684816   -1.356753   -2.197955
     19          6           0       -0.666090   -2.790794   -0.351790
     20          6           0        0.668146   -1.431948   -2.317309
     21          1           0       -1.279446   -0.741126   -2.861354
     22          6           0        0.688730   -2.903003   -0.397716
     23          1           0       -1.249920   -3.267875    0.427901
     24          6           0        1.429034   -2.125087   -1.328595
     25          1           0        1.154064   -0.885191   -3.114219
     26          1           0        1.178023   -3.485638    0.369736
     27          7           0        2.753728   -2.051410   -1.279319
     28          6           0        3.496364   -2.518904   -0.098846
     29          1           0        3.365232   -3.595884    0.038289
     30          1           0        3.122046   -1.969626    0.777372
     31          6           0        3.493755   -0.997498   -1.990376
     32          1           0        3.737166   -1.331268   -3.006724
     33          1           0        2.878073   -0.094723   -2.021104
     34          7           0       -1.325986   -0.237865    0.901338
     35         16           0       -1.349724   -1.059038    2.314785
     36          8           0       -2.580825   -1.853244    2.349243
     37          8           0       -0.076035   -1.763070    2.475253
     38          6           0       -0.542418    2.650690   -0.070238
     39          6           0       -0.068911    2.101242   -1.271909
     40          6           0       -0.837698    2.165300   -2.433136
     41          6           0       -2.094414    2.770330   -2.428177
     42          6           0       -2.576384    3.317045   -1.241496
     43          6           0       -1.803100    3.255940   -0.081969
     44          1           0        0.879548    1.573557   -1.258807
     45          1           0       -0.443991    1.743613   -3.356006
     46          1           0       -2.686323    2.822565   -3.337850
     47          1           0       -3.551451    3.795888   -1.217251
     48          1           0       -2.188762    3.693324    0.836929
     49          8           0        0.741839    1.523854    1.804481
     50          1           0       -0.361659   -0.002994    0.576406
     51          6           0        1.928532    0.805980    1.209236
     52          8           0        1.578378    0.192280    0.105533
     53          8           0        2.274024   -0.065705    2.270384
     54          1           0        1.574515   -0.743360    2.274337
     55          6           0        3.107926    1.807604    1.138283
     56          1           0        3.006872    2.524099    1.963613
     57          1           0        4.015118    1.231531    1.359701
     58          6           0        0.276131    2.709604    1.224246
     59          1           0       -0.374344    3.168116    1.981368
     60          1           0        1.105291    3.417244    1.072482
     61          6           0       -1.412890    0.185068    3.582336
     62          1           0       -0.523333    0.805493    3.440484
     63          1           0       -2.331177    0.759973    3.451224
     64          1           0       -1.406195   -0.326554    4.546275
     65          6           0        3.305428    2.545395   -0.183481
     66          1           0        3.504105    1.817776   -0.979483
     67          1           0        2.392096    3.067045   -0.488862
     68          6           0        4.451794    3.551850   -0.093925
     69          1           0        4.621660    4.065173   -1.045381
     70          1           0        4.237560    4.313684    0.664114
     71          1           0        5.385954    3.057725    0.196482
     72          6           0        4.933156   -2.128701   -0.424775
     73          1           0        5.549298   -2.056393    0.473174
     74          1           0        5.383118   -2.864950   -1.100198
     75          6           0        4.742579   -0.785187   -1.130729
     76          1           0        4.517350   -0.019693   -0.383264
     77          1           0        5.605890   -0.468399   -1.719630
 ---------------------------------------------------------------------

 SCF Done:  E(RM062X) =  -1991.35738286     A.U. after   14 cycles

 The electronic state is 1-A.
 Alpha  occ. eigenvalues --  -90.14471 -19.62047 -19.61990 -19.58506 -19.56640
 Alpha  occ. eigenvalues --  -19.50857 -14.85270 -14.80351 -14.76382 -10.63382
 Alpha  occ. eigenvalues --  -10.62782 -10.62261 -10.62046 -10.60910 -10.59604
 Alpha  occ. eigenvalues --  -10.58226 -10.57972 -10.57911 -10.57181 -10.56880
 Alpha  occ. eigenvalues --  -10.56801 -10.55782 -10.55770 -10.54996 -10.54942
 Alpha  occ. eigenvalues --  -10.54885 -10.54779 -10.54628 -10.54603 -10.54484
 Alpha  occ. eigenvalues --  -10.54424 -10.54350 -10.52986 -10.51305 -10.51265
 Alpha  occ. eigenvalues --  -10.49513  -8.45446  -6.37668  -6.37637  -6.37481
 Alpha  occ. eigenvalues --   -1.22277  -1.13631  -1.13249  -1.10527  -1.09251
 Alpha  occ. eigenvalues --   -1.05750  -1.02090  -0.99188  -0.95844  -0.95008
 Alpha  occ. eigenvalues --   -0.93556  -0.90322  -0.88752  -0.86149  -0.85557
 Alpha  occ. eigenvalues --   -0.84838  -0.84772  -0.84093  -0.83069  -0.82874
 Alpha  occ. eigenvalues --   -0.76699  -0.76087  -0.75788  -0.74243  -0.72998
 Alpha  occ. eigenvalues --   -0.71755  -0.68300  -0.68157  -0.67913  -0.67360
 Alpha  occ. eigenvalues --   -0.66647  -0.65326  -0.64832  -0.63524  -0.60509
 Alpha  occ. eigenvalues --   -0.60378  -0.59693  -0.59387  -0.57749  -0.57696
 Alpha  occ. eigenvalues --   -0.57273  -0.56479  -0.55821  -0.55143  -0.54252
 Alpha  occ. eigenvalues --   -0.53607  -0.52789  -0.52584  -0.52493  -0.51942
 Alpha  occ. eigenvalues --   -0.51586  -0.50934  -0.50508  -0.49925  -0.49427
 Alpha  occ. eigenvalues --   -0.49132  -0.48941  -0.48222  -0.48123  -0.47878
 Alpha  occ. eigenvalues --   -0.47763  -0.47533  -0.47021  -0.46320  -0.46052
 Alpha  occ. eigenvalues --   -0.44995  -0.44735  -0.44240  -0.43817  -0.43278
 Alpha  occ. eigenvalues --   -0.42589  -0.42183  -0.41268  -0.41195  -0.40996
 Alpha  occ. eigenvalues --   -0.40847  -0.40552  -0.39979  -0.39768  -0.39247
 Alpha  occ. eigenvalues --   -0.39205  -0.39100  -0.38398  -0.38141  -0.37737
 Alpha  occ. eigenvalues --   -0.37326  -0.36683  -0.36466  -0.35912  -0.34944
 Alpha  occ. eigenvalues --   -0.34418  -0.34091  -0.31759  -0.31219  -0.29795
 Alpha  occ. eigenvalues --   -0.28867  -0.28594  -0.27716  -0.24414  -0.24122
 Alpha virt. eigenvalues --   -0.01477   0.00379   0.03495   0.03722   0.10117
 Alpha virt. eigenvalues --    0.10799   0.11523   0.12340   0.13147   0.13367
 Alpha virt. eigenvalues --    0.14209   0.14380   0.14740   0.15289   0.15586

 Mulliken charges:
               1
     1  C   -0.306340
     2  C   -0.307410
     3  C   -0.309575
     4  C   -0.059443
     5  C    0.055485
     6  C   -0.310258
     7  H    0.174675
     8  H    0.163061
     9  H    0.166181
    10  H    0.150674
    11  H    0.164332
    12  H    0.208049
    13  H    0.174622
    14  H    0.194875
    15  H    0.163440
    16  H    0.155265
    17  N   -0.433231
    18  C    0.069436
    19  C    0.066220
    20  C   -0.202624
    21  H    0.205679
    22  C   -0.210894
    23  H    0.243954
    24  C    0.447286
    25  H    0.192464
    26  H    0.211155
    27  N   -0.523915
    28  C   -0.169113
    29  H    0.168975
    30  H    0.226345
    31  C   -0.152429
    32  H    0.163477
    33  H    0.206732
    34  N   -0.807721
    35  S    1.249189
    36  O   -0.607710
    37  O   -0.601178
    38  C    0.075709
    39  C   -0.189693
    40  C   -0.190800
    41  C   -0.172420
    42  C   -0.164342
    43  C   -0.210408
    44  H    0.219617
    45  H    0.140217
    46  H    0.154961
    47  H    0.158505
    48  H    0.152252
    49  O   -0.559144
    50  H    0.443734
    51  C    0.720213
    52  O   -0.717541
    53  O   -0.715454
    54  H    0.439762
    55  C   -0.338084
    56  H    0.147037
    57  H    0.150507
    58  C   -0.086585
    59  H    0.136966
    60  H    0.148935
    61  C   -0.664113
    62  H    0.276752
    63  H    0.197402
    64  H    0.218771
    65  C   -0.289392
    66  H    0.134179
    67  H    0.144698
    68  C   -0.473564
    69  H    0.148339
    70  H    0.152514
    71  H    0.146975
    72  C   -0.332751
    73  H    0.186403
    74  H    0.162022
    75  C   -0.341787
    76  H    0.200133
    77  H    0.169746
 Sum of Mulliken charges =  -0.00000

 Dipole moment (field-independent basis, Debye):
    X=             -2.9913    Y=             -2.1510    Z=             -6.1391  Tot=              7.1599
 Quadrupole moment (field-independent basis, Debye-Ang):
   XX=           -206.7970   YY=           -221.8079   ZZ=           -220.0851
   XY=            -12.7735   XZ=             -4.7103   YZ=             10.2594

 Normal termination of Gaussian 16 at Thu Feb  7 12:46:48 2019.
