 Gaussian 16, Revision A.03,
 Gaussian 16:  ES64L-G16RevA.03 25-Dec-2016

 ------------------------------------------
 #p M062X/6-31G* em=gd3 force int=ultrafine
 ------------------------------------------

 -----
 Title
 -----
 Symbolic Z-matrix:
 Charge =  0 Multiplicity = 1

                         Standard orientation:
 ---------------------------------------------------------------------
 Center     Atomic      Atomic             Coordinates (Angstroms)
 Number     Number       Type             X           Y           Z
 ---------------------------------------------------------------------
      1          6           0       -4.781327    0.404540   -0.556329
      2          6           0       -4.960548   -0.881047   -1.369428
      3          6           0       -3.628874   -1.328175   -1.985162
      4          6           0       -2.619909   -1.539725   -0.862518
      5          6           0       -2.394106   -0.227534   -0.067122
      6          6           0       -3.721781    0.241835    0.538197
      7          1           0       -3.746979   -2.248131   -2.567686
      8          1           0       -5.342950   -1.678925   -0.719358
      9          1           0       -5.700510   -0.732108   -2.162024
     10          1           0       -4.476270    1.214806   -1.231291
     11          1           0       -5.735219    0.701122   -0.108129
     12          1           0       -2.998875   -2.302271   -0.175147
     13          1           0       -2.077298    0.533247   -0.792031
     14          1           0       -4.062886   -0.483870    1.284156
     15          1           0       -3.546667    1.196885    1.044832
     16          1           0       -3.282228   -0.539731   -2.666879
     17          7           0       -1.293930   -2.018166   -1.305976
     18          6           0       -0.609184   -1.336908   -2.262676
     19          6           0       -0.595880   -2.803440   -0.442238
     20          6           0        0.747590   -1.381223   -2.355240
     21          1           0       -1.203848   -0.724624   -2.929411
     22          6           0        0.762081   -2.879350   -0.456606
     23          1           0       -1.186148   -3.311532    0.312695
     24          6           0        1.501695   -2.063188   -1.353634
     25          1           0        1.236643   -0.814482   -3.135789
     26          1           0        1.248661   -3.463779    0.311286
     27          7           0        2.821801   -1.945166   -1.263933
     28          6           0        3.547256   -2.371655   -0.057031
     29          1           0        3.440631   -3.448863    0.097414
     30          1           0        3.137125   -1.818161    0.800695
     31          6           0        3.545968   -0.882803   -1.974136
     32          1           0        3.797285   -1.214275   -2.989099
     33          1           0        2.911221    0.006326   -2.019096
     34          7           0       -1.279044   -0.322492    0.861616
     35         16           0       -1.336991   -1.174854    2.249197
     36          8           0       -2.531021   -2.025879    2.221775
     37          8           0       -0.041361   -1.829037    2.452105
     38          6           0       -0.619933    2.695206    0.054120
     39          6           0       -0.145904    2.224096   -1.180380
     40          6           0       -0.932910    2.317532   -2.326542
     41          6           0       -2.210821    2.874939   -2.273313
     42          6           0       -2.695361    3.340321   -1.054179
     43          6           0       -1.901921    3.251097    0.090011
     44          1           0        0.818732    1.731202   -1.212370
     45          1           0       -0.538401    1.957987   -3.274587
     46          1           0       -2.818197    2.951360   -3.171020
     47          1           0       -3.687944    3.778363   -0.991561
     48          1           0       -2.288192    3.629065    1.034827
     49          8           0        0.690518    1.552869    1.904875
     50          1           0       -0.293546   -0.071554    0.553351
     51          6           0        1.827550    0.828231    1.261468
     52          8           0        1.422304    0.221964    0.163823
     53          8           0        2.217820   -0.056690    2.296038
     54          1           0        1.522804   -0.739440    2.322218
     55          6           0        3.030303    1.800839    1.136350
     56          1           0        2.989773    2.517280    1.966881
     57          1           0        3.923540    1.190463    1.320315
     58          6           0        0.224066    2.742711    1.331307
     59          1           0       -0.403353    3.207964    2.102773
     60          1           0        1.058550    3.439164    1.161241
     61          6           0       -1.511497    0.032262    3.542427
     62          1           0       -0.649251    0.698784    3.452027
     63          1           0       -2.449622    0.567016    3.384110
     64          1           0       -1.521687   -0.499875    4.495077
     65          6           0        3.205522    2.531378   -0.191940
     66          1           0        3.178550    1.800277   -1.006465
     67          1           0        2.373284    3.216272   -0.386026
     68          6           0        4.517405    3.313141   -0.237468
     69          1           0        4.647329    3.833823   -1.191381
     70          1           0        4.553182    4.061757    0.562014
     71          1           0        5.376195    2.644870   -0.097231
     72          6           0        4.982786   -1.956930   -0.359882
     73          1           0        5.573709   -1.843308    0.550759
     74          1           0        5.466022   -2.703909   -0.999180
     75          6           0        4.790158   -0.639165   -1.114573
     76          1           0        4.570051    0.156570   -0.398609
     77          1           0        5.656209   -0.345055   -1.711229
 ---------------------------------------------------------------------

 SCF Done:  E(RM062X) =  -1991.35875116     A.U. after   14 cycles

 The electronic state is 1-A.
 Alpha  occ. eigenvalues --  -90.14124 -19.61737 -19.61715 -19.58733 -19.56717
 Alpha  occ. eigenvalues --  -19.51330 -14.85153 -14.80453 -14.75632 -10.63411
 Alpha  occ. eigenvalues --  -10.62782 -10.62288 -10.62150 -10.60698 -10.59293
 Alpha  occ. eigenvalues --  -10.58547 -10.57980 -10.57918 -10.57129 -10.56889
 Alpha  occ. eigenvalues --  -10.56674 -10.55639 -10.55587 -10.55133 -10.54901
 Alpha  occ. eigenvalues --  -10.54822 -10.54759 -10.54706 -10.54554 -10.54382
 Alpha  occ. eigenvalues --  -10.54306 -10.54281 -10.53089 -10.51590 -10.51493
 Alpha  occ. eigenvalues --  -10.49741  -8.45101  -6.37317  -6.37296  -6.37138
 Alpha  occ. eigenvalues --   -1.21950  -1.13615  -1.13504  -1.10206  -1.09349
 Alpha  occ. eigenvalues --   -1.05897  -1.01674  -0.99363  -0.95719  -0.94977
 Alpha  occ. eigenvalues --   -0.93477  -0.90281  -0.88751  -0.85884  -0.85817
 Alpha  occ. eigenvalues --   -0.84816  -0.84687  -0.84267  -0.83047  -0.82660
 Alpha  occ. eigenvalues --   -0.76657  -0.76315  -0.75834  -0.74390  -0.72756
 Alpha  occ. eigenvalues --   -0.71615  -0.68328  -0.68253  -0.67935  -0.67180
 Alpha  occ. eigenvalues --   -0.66758  -0.65218  -0.64870  -0.63522  -0.60571
 Alpha  occ. eigenvalues --   -0.60403  -0.59791  -0.58944  -0.57811  -0.57577
 Alpha  occ. eigenvalues --   -0.57158  -0.56431  -0.55757  -0.55168  -0.54184
 Alpha  occ. eigenvalues --   -0.53514  -0.52646  -0.52428  -0.52398  -0.51901
 Alpha  occ. eigenvalues --   -0.51542  -0.51049  -0.50850  -0.49862  -0.49583
 Alpha  occ. eigenvalues --   -0.49157  -0.48820  -0.48205  -0.48123  -0.48053
 Alpha  occ. eigenvalues --   -0.47650  -0.47449  -0.46901  -0.46454  -0.46100
 Alpha  occ. eigenvalues --   -0.44892  -0.44714  -0.44122  -0.43879  -0.43255
 Alpha  occ. eigenvalues --   -0.42484  -0.42109  -0.41452  -0.41369  -0.41146
 Alpha  occ. eigenvalues --   -0.40891  -0.40464  -0.40001  -0.39831  -0.39381
 Alpha  occ. eigenvalues --   -0.39257  -0.39057  -0.38453  -0.37922  -0.37586
 Alpha  occ. eigenvalues --   -0.37383  -0.36732  -0.36573  -0.35712  -0.34892
 Alpha  occ. eigenvalues --   -0.34377  -0.33930  -0.31692  -0.31047  -0.29758
 Alpha  occ. eigenvalues --   -0.28888  -0.28593  -0.27622  -0.24928  -0.24471
 Alpha virt. eigenvalues --   -0.01494   0.00428   0.03571   0.03777   0.10153
 Alpha virt. eigenvalues --    0.11026   0.11643   0.12151   0.13195   0.13537
 Alpha virt. eigenvalues --    0.14201   0.14646   0.14770   0.15260   0.15599

 Mulliken charges:
               1
     1  C   -0.306195
     2  C   -0.307022
     3  C   -0.309604
     4  C   -0.059767
     5  C    0.057098
     6  C   -0.311801
     7  H    0.173831
     8  H    0.162771
     9  H    0.165342
    10  H    0.151014
    11  H    0.163127
    12  H    0.208716
    13  H    0.172780
    14  H    0.193063
    15  H    0.163552
    16  H    0.154039
    17  N   -0.430933
    18  C    0.068126
    19  C    0.063637
    20  C   -0.202946
    21  H    0.206718
    22  C   -0.208899
    23  H    0.245633
    24  C    0.447124
    25  H    0.191570
    26  H    0.211657
    27  N   -0.526996
    28  C   -0.172550
    29  H    0.169798
    30  H    0.232159
    31  C   -0.154438
    32  H    0.166845
    33  H    0.203406
    34  N   -0.816642
    35  S    1.253879
    36  O   -0.612270
    37  O   -0.607836
    38  C    0.087094
    39  C   -0.181709
    40  C   -0.189362
    41  C   -0.170840
    42  C   -0.163695
    43  C   -0.212178
    44  H    0.207952
    45  H    0.140800
    46  H    0.154823
    47  H    0.158533
    48  H    0.152470
    49  O   -0.549068
    50  H    0.449170
    51  C    0.726340
    52  O   -0.723412
    53  O   -0.718186
    54  H    0.445394
    55  C   -0.338412
    56  H    0.149464
    57  H    0.150393
    58  C   -0.092868
    59  H    0.140711
    60  H    0.147360
    61  C   -0.663062
    62  H    0.272348
    63  H    0.196265
    64  H    0.217445
    65  C   -0.294401
    66  H    0.139002
    67  H    0.146717
    68  C   -0.474145
    69  H    0.149156
    70  H    0.155335
    71  H    0.143851
    72  C   -0.331800
    73  H    0.187468
    74  H    0.163214
    75  C   -0.343596
    76  H    0.196091
    77  H    0.171354
 Sum of Mulliken charges =  -0.00000

 Dipole moment (field-independent basis, Debye):
    X=             -2.3931    Y=             -1.8516    Z=             -6.4180  Tot=              7.0955
 Quadrupole moment (field-independent basis, Debye-Ang):
   XX=           -205.3865   YY=           -223.1455   ZZ=           -219.7544
   XY=            -12.2140   XZ=             -5.3983   YZ=             10.0120

 Normal termination of Gaussian 16 at Thu Feb  7 15:46:56 2019.
