 Gaussian 16, Revision A.03,
 Gaussian 16:  ES64L-G16RevA.03 25-Dec-2016

 ------------------------------------------
 #p M062X/6-31G* em=gd3 force int=ultrafine
 ------------------------------------------

 -----
 Title
 -----
 Symbolic Z-matrix:
 Charge =  0 Multiplicity = 1

                         Standard orientation:
 ---------------------------------------------------------------------
 Center     Atomic      Atomic             Coordinates (Angstroms)
 Number     Number       Type             X           Y           Z
 ---------------------------------------------------------------------
      1          6           0       -4.782794    0.354440   -0.622306
      2          6           0       -4.933307   -0.942373   -1.423244
      3          6           0       -3.586378   -1.379243   -2.012223
      4          6           0       -2.592751   -1.565958   -0.871575
      5          6           0       -2.395534   -0.242292   -0.087317
      6          6           0       -3.739278    0.216554    0.490752
      7          1           0       -3.683283   -2.306575   -2.587003
      8          1           0       -5.316269   -1.737570   -0.770256
      9          1           0       -5.662015   -0.811724   -2.229405
     10          1           0       -4.477004    1.160857   -1.301532
     11          1           0       -5.747310    0.644131   -0.192668
     12          1           0       -2.973408   -2.325316   -0.181488
     13          1           0       -2.075689    0.514133   -0.815561
     14          1           0       -4.083883   -0.505806    1.238171
     15          1           0       -3.584852    1.178668    0.990523
     16          1           0       -3.239053   -0.593341   -2.696499
     17          7           0       -1.255207   -2.034273   -1.290022
     18          6           0       -0.569874   -1.370509   -2.257991
     19          6           0       -0.556792   -2.793205   -0.403052
     20          6           0        0.787786   -1.407772   -2.342073
     21          1           0       -1.164814   -0.780162   -2.943865
     22          6           0        0.801740   -2.856446   -0.405490
     23          1           0       -1.148385   -3.291063    0.357563
     24          6           0        1.540522   -2.057916   -1.318828
     25          1           0        1.276898   -0.857935   -3.134503
     26          1           0        1.288036   -3.417695    0.379738
     27          7           0        2.859698   -1.929841   -1.225766
     28          6           0        3.582380   -2.317201   -0.003812
     29          1           0        3.480849   -3.390205    0.180653
     30          1           0        3.164921   -1.742944    0.836828
     31          6           0        3.583685   -0.890884   -1.968609
     32          1           0        3.837861   -1.255090   -2.971607
     33          1           0        2.948370   -0.004386   -2.048424
     34          7           0       -1.294781   -0.312864    0.860408
     35         16           0       -1.368246   -1.148857    2.256532
     36          8           0       -2.556093   -2.008411    2.225053
     37          8           0       -0.072107   -1.793507    2.487033
     38          6           0       -0.639000    2.702525    0.050562
     39          6           0       -0.164736    2.241592   -1.187760
     40          6           0       -0.958978    2.325797   -2.329495
     41          6           0       -2.245091    2.863775   -2.267359
     42          6           0       -2.730580    3.317416   -1.044184
     43          6           0       -1.929383    3.237764    0.095464
     44          1           0        0.807295    1.764532   -1.227506
     45          1           0       -0.564418    1.974524   -3.280568
     46          1           0       -2.858485    2.933449   -3.161587
     47          1           0       -3.729874    3.739122   -0.974843
     48          1           0       -2.316030    3.607215    1.043627
     49          8           0        0.675752    1.577054    1.908286
     50          1           0       -0.302933   -0.065227    0.557227
     51          6           0        1.801085    0.840274    1.263190
     52          8           0        1.384390    0.231127    0.170551
     53          8           0        2.192386   -0.041154    2.300738
     54          1           0        1.487792   -0.713871    2.343967
     55          6           0        3.014978    1.798255    1.123070
     56          1           0        2.988903    2.521079    1.948407
     57          1           0        3.900016    1.176729    1.307099
     58          6           0        0.214229    2.762507    1.320625
     59          1           0       -0.403659    3.243743    2.089661
     60          1           0        1.053248    3.448680    1.134577
     61          6           0       -1.566960    0.074617    3.530789
     62          1           0       -0.707469    0.744881    3.441954
     63          1           0       -2.506060    0.601439    3.352807
     64          1           0       -1.586016   -0.443738    4.490849
     65          6           0        3.194031    2.514835   -0.212323
     66          1           0        3.115864    1.779503   -1.021522
     67          1           0        2.387908    3.235387   -0.392616
     68          6           0        4.536169    3.239882   -0.291452
     69          1           0        4.665747    3.751951   -1.250030
     70          1           0        4.623173    3.988610    0.503757
     71          1           0        5.369165    2.537405   -0.168807
     72          6           0        5.017790   -1.906006   -0.313302
     73          1           0        5.602750   -1.757494    0.596225
     74          1           0        5.508608   -2.672672   -0.922686
     75          6           0        4.825954   -0.616289   -1.115464
     76          1           0        4.606134    0.205511   -0.429704
     77          1           0        5.693235   -0.343896   -1.720646
 ---------------------------------------------------------------------

 SCF Done:  E(RM062X) =  -1991.35889782     A.U. after   14 cycles

 The electronic state is 1-A.
 Alpha  occ. eigenvalues --  -90.14071 -19.61690 -19.61673 -19.58779 -19.56738
 Alpha  occ. eigenvalues --  -19.51383 -14.85130 -14.80456 -14.75508 -10.63390
 Alpha  occ. eigenvalues --  -10.62764 -10.62321 -10.62088 -10.60664 -10.59231
 Alpha  occ. eigenvalues --  -10.58671 -10.57938 -10.57887 -10.57078 -10.56869
 Alpha  occ. eigenvalues --  -10.56658 -10.55613 -10.55579 -10.55170 -10.54992
 Alpha  occ. eigenvalues --  -10.54789 -10.54725 -10.54671 -10.54517 -10.54350
 Alpha  occ. eigenvalues --  -10.54274 -10.54219 -10.53108 -10.51658 -10.51562
 Alpha  occ. eigenvalues --  -10.49783  -8.45049  -6.37265  -6.37244  -6.37087
 Alpha  occ. eigenvalues --   -1.21902  -1.13651  -1.13478  -1.10154  -1.09355
 Alpha  occ. eigenvalues --   -1.05906  -1.01607  -0.99396  -0.95688  -0.94941
 Alpha  occ. eigenvalues --   -0.93460  -0.90248  -0.88753  -0.85907  -0.85817
 Alpha  occ. eigenvalues --   -0.84792  -0.84655  -0.84311  -0.83021  -0.82618
 Alpha  occ. eigenvalues --   -0.76644  -0.76360  -0.75830  -0.74402  -0.72716
 Alpha  occ. eigenvalues --   -0.71576  -0.68334  -0.68282  -0.67915  -0.67152
 Alpha  occ. eigenvalues --   -0.66757  -0.65196  -0.64865  -0.63520  -0.60578
 Alpha  occ. eigenvalues --   -0.60406  -0.59798  -0.58860  -0.57827  -0.57552
 Alpha  occ. eigenvalues --   -0.57133  -0.56424  -0.55713  -0.55156  -0.54169
 Alpha  occ. eigenvalues --   -0.53466  -0.52635  -0.52398  -0.52361  -0.51881
 Alpha  occ. eigenvalues --   -0.51526  -0.51077  -0.50934  -0.49845  -0.49594
 Alpha  occ. eigenvalues --   -0.49157  -0.48806  -0.48201  -0.48107  -0.48072
 Alpha  occ. eigenvalues --   -0.47626  -0.47430  -0.46894  -0.46469  -0.46092
 Alpha  occ. eigenvalues --   -0.44920  -0.44674  -0.44091  -0.43884  -0.43249
 Alpha  occ. eigenvalues --   -0.42450  -0.42081  -0.41532  -0.41419  -0.41180
 Alpha  occ. eigenvalues --   -0.40878  -0.40447  -0.40018  -0.39848  -0.39469
 Alpha  occ. eigenvalues --   -0.39250  -0.39043  -0.38449  -0.37887  -0.37579
 Alpha  occ. eigenvalues --   -0.37357  -0.36723  -0.36572  -0.35683  -0.34875
 Alpha  occ. eigenvalues --   -0.34350  -0.33891  -0.31732  -0.30985  -0.29726
 Alpha  occ. eigenvalues --   -0.28888  -0.28563  -0.27583  -0.24984  -0.24517
 Alpha virt. eigenvalues --   -0.01435   0.00475   0.03603   0.03815   0.10185
 Alpha virt. eigenvalues --    0.11055   0.11601   0.12107   0.13213   0.13553
 Alpha virt. eigenvalues --    0.14200   0.14676   0.14800   0.15328   0.15597

 Mulliken charges:
               1
     1  C   -0.306092
     2  C   -0.306911
     3  C   -0.310092
     4  C   -0.059270
     5  C    0.057172
     6  C   -0.311863
     7  H    0.173732
     8  H    0.162813
     9  H    0.165150
    10  H    0.150682
    11  H    0.162946
    12  H    0.208452
    13  H    0.172544
    14  H    0.193464
    15  H    0.163360
    16  H    0.153779
    17  N   -0.431992
    18  C    0.069497
    19  C    0.064243
    20  C   -0.204668
    21  H    0.206941
    22  C   -0.209027
    23  H    0.245829
    24  C    0.449706
    25  H    0.190987
    26  H    0.211758
    27  N   -0.528496
    28  C   -0.174867
    29  H    0.169885
    30  H    0.235452
    31  C   -0.154024
    32  H    0.168032
    33  H    0.200927
    34  N   -0.817174
    35  S    1.253936
    36  O   -0.611886
    37  O   -0.609163
    38  C    0.089812
    39  C   -0.178475
    40  C   -0.189004
    41  C   -0.170628
    42  C   -0.163682
    43  C   -0.212101
    44  H    0.204168
    45  H    0.141151
    46  H    0.154634
    47  H    0.158332
    48  H    0.152287
    49  O   -0.547963
    50  H    0.449589
    51  C    0.727747
    52  O   -0.724415
    53  O   -0.718292
    54  H    0.445709
    55  C   -0.337828
    56  H    0.150154
    57  H    0.149107
    58  C   -0.094317
    59  H    0.141296
    60  H    0.146880
    61  C   -0.662758
    62  H    0.271157
    63  H    0.196320
    64  H    0.217355
    65  C   -0.295653
    66  H    0.141336
    67  H    0.146801
    68  C   -0.475471
    69  H    0.149454
    70  H    0.156063
    71  H    0.143767
    72  C   -0.331849
    73  H    0.187580
    74  H    0.163545
    75  C   -0.344166
    76  H    0.194881
    77  H    0.171719
 Sum of Mulliken charges =  -0.00000

 Dipole moment (field-independent basis, Debye):
    X=             -2.1744    Y=             -1.8698    Z=             -6.4756  Tot=              7.0822
 Quadrupole moment (field-independent basis, Debye-Ang):
   XX=           -204.9183   YY=           -223.2744   ZZ=           -219.8014
   XY=            -12.0981   XZ=             -5.3073   YZ=             10.1198

 Normal termination of Gaussian 16 at Thu Feb  7 16:46:10 2019.
