 Gaussian 16, Revision A.03,
 Gaussian 16:  ES64L-G16RevA.03 25-Dec-2016

 ------------------------------------------
 #p M062X/6-31G* em=gd3 force int=ultrafine
 ------------------------------------------

 -----
 Title
 -----
 Symbolic Z-matrix:
 Charge =  0 Multiplicity = 1

                         Standard orientation:
 ---------------------------------------------------------------------
 Center     Atomic      Atomic             Coordinates (Angstroms)
 Number     Number       Type             X           Y           Z
 ---------------------------------------------------------------------
      1          6           0       -4.864341    0.032587   -0.414560
      2          6           0       -4.885374   -1.242195   -1.263523
      3          6           0       -3.500376   -1.524771   -1.857860
      4          6           0       -2.495344   -1.652218   -0.717863
      5          6           0       -2.415626   -0.338033    0.108907
      6          6           0       -3.806655   -0.043510    0.690592
      7          1           0       -3.507853   -2.436370   -2.466340
      8          1           0       -5.190831   -2.093927   -0.641622
      9          1           0       -5.620471   -1.155247   -2.070336
     10          1           0       -4.636243    0.889246   -1.064278
     11          1           0       -5.854926    0.211722    0.017036
     12          1           0       -2.799717   -2.465923   -0.054438
     13          1           0       -2.210095    0.452783   -0.627491
     14          1           0       -4.066520   -0.824276    1.416725
     15          1           0       -3.748657    0.910407    1.229088
     16          1           0       -3.231658   -0.683892   -2.512247
     17          7           0       -1.125015   -1.994907   -1.163695
     18          6           0       -0.520467   -1.288128   -2.145852
     19          6           0       -0.363416   -2.756294   -0.343187
     20          6           0        0.832704   -1.304313   -2.326830
     21          1           0       -1.169156   -0.684592   -2.767606
     22          6           0        0.995713   -2.819971   -0.459609
     23          1           0       -0.893693   -3.271009    0.450835
     24          6           0        1.660667   -2.013474   -1.413648
     25          1           0        1.258588   -0.722787   -3.133848
     26          1           0        1.538684   -3.405902    0.268683
     27          7           0        2.996427   -1.911983   -1.437950
     28          6           0        3.805949   -2.434502   -0.330722
     29          1           0        3.752335   -3.526621   -0.293055
     30          1           0        3.425217   -2.024388    0.615249
     31          6           0        3.681968   -0.816525   -2.139841
     32          1           0        3.933627   -1.121810   -3.163040
     33          1           0        3.036528    0.065293   -2.166172
     34          7           0       -1.294055   -0.294226    1.025569
     35         16           0       -1.254052   -1.255109    2.277984
     36          8           0       -2.234459   -2.362672    2.225430
     37          8           0        0.147576   -1.695327    2.518947
     38          6           0       -1.211836    2.839089   -0.176024
     39          6           0       -0.436658    2.204564   -1.151399
     40          6           0       -0.918041    2.086016   -2.453858
     41          6           0       -2.183994    2.563965   -2.791127
     42          6           0       -2.966147    3.179395   -1.815375
     43          6           0       -2.476987    3.317740   -0.518782
     44          1           0        0.518377    1.764531   -0.870193
     45          1           0       -0.300959    1.609530   -3.212433
     46          1           0       -2.559023    2.461055   -3.805160
     47          1           0       -3.957616    3.548546   -2.061665
     48          1           0       -3.090956    3.791554    0.244586
     49          8           0        0.182392    1.957908    1.607903
     50          1           0       -0.272319    1.101594    1.361422
     51          6           0        2.432106    0.667008    1.266219
     52          8           0        2.150885    0.219961    0.166848
     53          8           0        2.159929    0.050874    2.403378
     54          1           0        1.487346   -0.673711    2.269339
     55          6           0        3.185342    1.959958    1.474055
     56          1           0        2.725497    2.467801    2.326365
     57          1           0        4.214389    1.708238    1.769518
     58          6           0       -0.696931    2.981521    1.242411
     59          1           0       -1.560154    3.045484    1.926783
     60          1           0       -0.146579    3.928277    1.338569
     61          6           0       -1.653177   -0.259407    3.711619
     62          1           0       -0.963672    0.588031    3.715502
     63          1           0       -2.684983    0.083137    3.611950
     64          1           0       -1.531310   -0.866899    4.609492
     65          6           0        3.175294    2.845389    0.235121
     66          1           0        3.592369    2.291630   -0.614875
     67          1           0        2.132697    3.062326   -0.021956
     68          6           0        3.944839    4.145370    0.447490
     69          1           0        3.929300    4.768659   -0.451273
     70          1           0        3.508652    4.727121    1.266265
     71          1           0        4.992117    3.948999    0.702373
     72          6           0        5.208501   -1.918605   -0.640546
     73          1           0        5.823794   -1.846222    0.258446
     74          1           0        5.708808   -2.588210   -1.347842
     75          6           0        4.929841   -0.561073   -1.290393
     76          1           0        4.680394    0.173590   -0.518991
     77          1           0        5.766099   -0.181654   -1.881130
 ---------------------------------------------------------------------

 SCF Done:  E(RM062X) =  -1991.39040177     A.U. after   15 cycles

 The electronic state is 1-A.
 Alpha  occ. eigenvalues --  -90.10398 -19.63397 -19.60114 -19.59338 -19.58627
 Alpha  occ. eigenvalues --  -19.58378 -14.84818 -14.80535 -14.69439 -10.65450
 Alpha  occ. eigenvalues --  -10.63245 -10.62383 -10.61531 -10.59163 -10.59135
 Alpha  occ. eigenvalues --  -10.59021 -10.57815 -10.57429 -10.56856 -10.56649
 Alpha  occ. eigenvalues --  -10.56087 -10.55780 -10.55486 -10.54964 -10.54917
 Alpha  occ. eigenvalues --  -10.54855 -10.54572 -10.54535 -10.54486 -10.53795
 Alpha  occ. eigenvalues --  -10.53734 -10.53558 -10.53120 -10.52929 -10.52645
 Alpha  occ. eigenvalues --  -10.52501  -8.41364  -6.33602  -6.33509  -6.33429
 Alpha  occ. eigenvalues --   -1.19137  -1.17929  -1.12951  -1.10374  -1.09856
 Alpha  occ. eigenvalues --   -1.09179  -1.06197  -0.97563  -0.95247  -0.94832
 Alpha  occ. eigenvalues --   -0.92194  -0.89861  -0.88603  -0.87989  -0.85019
 Alpha  occ. eigenvalues --   -0.84968  -0.83650  -0.83507  -0.83302  -0.80224
 Alpha  occ. eigenvalues --   -0.79084  -0.76371  -0.75672  -0.74666  -0.70950
 Alpha  occ. eigenvalues --   -0.70196  -0.69038  -0.68746  -0.68370  -0.67984
 Alpha  occ. eigenvalues --   -0.65731  -0.64725  -0.63961  -0.63435  -0.61659
 Alpha  occ. eigenvalues --   -0.60284  -0.59410  -0.58947  -0.58373  -0.56176
 Alpha  occ. eigenvalues --   -0.55481  -0.55158  -0.55068  -0.54016  -0.53662
 Alpha  occ. eigenvalues --   -0.53435  -0.53085  -0.52332  -0.51981  -0.51731
 Alpha  occ. eigenvalues --   -0.51173  -0.51015  -0.50612  -0.50256  -0.49832
 Alpha  occ. eigenvalues --   -0.49628  -0.49429  -0.48854  -0.48372  -0.48014
 Alpha  occ. eigenvalues --   -0.47761  -0.47172  -0.46968  -0.46877  -0.45954
 Alpha  occ. eigenvalues --   -0.45882  -0.45255  -0.43970  -0.43653  -0.43424
 Alpha  occ. eigenvalues --   -0.42757  -0.42430  -0.42281  -0.41921  -0.41867
 Alpha  occ. eigenvalues --   -0.41162  -0.40821  -0.40602  -0.39926  -0.39518
 Alpha  occ. eigenvalues --   -0.39376  -0.39176  -0.38703  -0.38375  -0.37788
 Alpha  occ. eigenvalues --   -0.37380  -0.36283  -0.35933  -0.35384  -0.35108
 Alpha  occ. eigenvalues --   -0.34423  -0.33159  -0.32126  -0.31692  -0.31513
 Alpha  occ. eigenvalues --   -0.29828  -0.28883  -0.28325  -0.27556  -0.25454
 Alpha virt. eigenvalues --   -0.01022   0.00643   0.03344   0.03823   0.09090
 Alpha virt. eigenvalues --    0.10114   0.10955   0.11733   0.13009   0.13399
 Alpha virt. eigenvalues --    0.13798   0.14187   0.15231   0.15547   0.15732

 Mulliken charges:
               1
     1  C   -0.303994
     2  C   -0.304216
     3  C   -0.309831
     4  C   -0.073518
     5  C    0.061873
     6  C   -0.305342
     7  H    0.165767
     8  H    0.160897
     9  H    0.159208
    10  H    0.146785
    11  H    0.156628
    12  H    0.213229
    13  H    0.141369
    14  H    0.180062
    15  H    0.148402
    16  H    0.151456
    17  N   -0.424708
    18  C    0.100641
    19  C    0.084570
    20  C   -0.228125
    21  H    0.205788
    22  C   -0.227336
    23  H    0.264066
    24  C    0.428745
    25  H    0.188304
    26  H    0.206684
    27  N   -0.529690
    28  C   -0.156536
    29  H    0.178447
    30  H    0.198837
    31  C   -0.147445
    32  H    0.169492
    33  H    0.196629
    34  N   -0.754811
    35  S    1.248918
    36  O   -0.647069
    37  O   -0.671053
    38  C    0.048871
    39  C   -0.177074
    40  C   -0.186998
    41  C   -0.170182
    42  C   -0.162603
    43  C   -0.197147
    44  H    0.200728
    45  H    0.139844
    46  H    0.156480
    47  H    0.161740
    48  H    0.156087
    49  O   -0.709065
    50  H    0.479817
    51  C    0.642207
    52  O   -0.523926
    53  O   -0.643217
    54  H    0.485519
    55  C   -0.366539
    56  H    0.199439
    57  H    0.163856
    58  C   -0.070043
    59  H    0.129099
    60  H    0.161959
    61  C   -0.655167
    62  H    0.217876
    63  H    0.188287
    64  H    0.208309
    65  C   -0.286849
    66  H    0.142840
    67  H    0.169267
    68  C   -0.480528
    69  H    0.158194
    70  H    0.158804
    71  H    0.149372
    72  C   -0.337513
    73  H    0.183840
    74  H    0.170112
    75  C   -0.335551
    76  H    0.183307
    77  H    0.173423
 Sum of Mulliken charges =  -0.00000

 Dipole moment (field-independent basis, Debye):
    X=              1.5874    Y=             -0.4209    Z=             -6.4777  Tot=              6.6826
 Quadrupole moment (field-independent basis, Debye-Ang):
   XX=           -197.5889   YY=           -223.9048   ZZ=           -221.4572
   XY=            -12.2424   XZ=             -1.6189   YZ=             12.2091

 Normal termination of Gaussian 16 at Fri Feb  8 01:32:53 2019.
