 Gaussian 16, Revision A.03,
 Gaussian 16:  ES64L-G16RevA.03 25-Dec-2016

 ------------------------------------------
 #p M062X/6-31G* em=gd3 force int=ultrafine
 ------------------------------------------

 -----
 Title
 -----
 Symbolic Z-matrix:
 Charge =  0 Multiplicity = 1

                         Standard orientation:
 ---------------------------------------------------------------------
 Center     Atomic      Atomic             Coordinates (Angstroms)
 Number     Number       Type             X           Y           Z
 ---------------------------------------------------------------------
      1          6           0       -4.844575    0.474736   -0.537075
      2          6           0       -5.033321   -0.840901   -1.298461
      3          6           0       -3.704600   -1.323113   -1.892610
      4          6           0       -2.693560   -1.497574   -0.764534
      5          6           0       -2.467450   -0.159825   -0.017697
      6          6           0       -3.791154    0.342946    0.567712
      7          1           0       -3.828095   -2.264550   -2.438375
      8          1           0       -5.424867   -1.608368   -0.617918
      9          1           0       -5.769674   -0.717971   -2.098856
     10          1           0       -4.527555    1.254871   -1.242207
     11          1           0       -5.797365    0.798620   -0.105909
     12          1           0       -3.071201   -2.236415   -0.050532
     13          1           0       -2.144364    0.573055   -0.768067
     14          1           0       -4.140547   -0.350236    1.339966
     15          1           0       -3.607310    1.314535    1.039271
     16          1           0       -3.351777   -0.565174   -2.604910
     17          7           0       -1.372065   -1.994160   -1.201055
     18          6           0       -0.691456   -1.351392   -2.187835
     19          6           0       -0.674541   -2.775577   -0.334294
     20          6           0        0.660580   -1.435605   -2.312079
     21          1           0       -1.284609   -0.736380   -2.852899
     22          6           0        0.679338   -2.895821   -0.384678
     23          1           0       -1.258357   -3.246887    0.448828
     24          6           0        1.421734   -2.130236   -1.324604
     25          1           0        1.146477   -0.895999   -3.113907
     26          1           0        1.167800   -3.478229    0.383491
     27          7           0        2.747279   -2.070754   -1.283914
     28          6           0        3.489331   -2.540731   -0.103702
     29          1           0        3.353809   -3.617110    0.034338
     30          1           0        3.118079   -1.988506    0.771827
     31          6           0        3.496499   -1.027793   -2.002428
     32          1           0        3.745132   -1.374772   -3.013154
     33          1           0        2.887407   -0.121401   -2.045980
     34          7           0       -1.354450   -0.218817    0.917757
     35         16           0       -1.368733   -1.042868    2.331150
     36          8           0       -2.604054   -1.829591    2.370639
     37          8           0       -0.097031   -1.751841    2.480840
     38          6           0       -0.531474    2.643224   -0.088053
     39          6           0       -0.058150    2.075702   -1.280918
     40          6           0       -0.821052    2.137775   -2.446473
     41          6           0       -2.070200    2.757977   -2.453469
     42          6           0       -2.551320    3.322761   -1.274594
     43          6           0       -1.784768    3.263667   -0.110634
     44          1           0        0.885207    1.537635   -1.254963
     45          1           0       -0.428552    1.702245   -3.363496
     46          1           0       -2.657144    2.808316   -3.366471
     47          1           0       -3.520504    3.813793   -1.260423
     48          1           0       -2.169592    3.713932    0.802342
     49          8           0        0.744236    1.496952    1.772763
     50          1           0       -0.399202    0.037456    0.604436
     51          6           0        1.959707    0.797647    1.195949
     52          8           0        1.643447    0.189245    0.083050
     53          8           0        2.289097   -0.075832    2.261643
     54          1           0        1.584513   -0.748579    2.256890
     55          6           0        3.124418    1.816934    1.156122
     56          1           0        2.998409    2.530622    1.980818
     57          1           0        4.035890    1.252804    1.391561
     58          6           0        0.280523    2.691661    1.210353
     59          1           0       -0.374332    3.140270    1.970102
     60          1           0        1.109358    3.402005    1.070770
     61          6           0       -1.413426    0.201454    3.599169
     62          1           0       -0.522833    0.818049    3.446394
     63          1           0       -2.331705    0.778843    3.480470
     64          1           0       -1.394946   -0.310311    4.562957
     65          6           0        3.332627    2.557253   -0.162771
     66          1           0        3.554229    1.830762   -0.953635
     67          1           0        2.415423    3.063308   -0.483568
     68          6           0        4.461834    3.581408   -0.057368
     69          1           0        4.638752    4.095358   -1.007251
     70          1           0        4.225156    4.341744    0.695540
     71          1           0        5.398826    3.102041    0.248092
     72          6           0        4.927553   -2.155458   -0.428880
     73          1           0        5.542555   -2.083513    0.469901
     74          1           0        5.376758   -2.893707   -1.102735
     75          6           0        4.739895   -0.812619   -1.136360
     76          1           0        4.505441   -0.048004   -0.390576
     77          1           0        5.606165   -0.494582   -1.720295
 ---------------------------------------------------------------------

 SCF Done:  E(RM062X) =  -1991.35690666     A.U. after   15 cycles

 The electronic state is 1-A.
 Alpha  occ. eigenvalues --  -90.14616 -19.62191 -19.62093 -19.58470 -19.56643
 Alpha  occ. eigenvalues --  -19.50679 -14.85291 -14.80283 -14.76614 -10.63340
 Alpha  occ. eigenvalues --  -10.62762 -10.62253 -10.61985 -10.60990 -10.59716
 Alpha  occ. eigenvalues --  -10.58120 -10.57935 -10.57830 -10.57156 -10.56886
 Alpha  occ. eigenvalues --  -10.56852 -10.55930 -10.55823 -10.55011 -10.54913
 Alpha  occ. eigenvalues --  -10.54906 -10.54814 -10.54660 -10.54572 -10.54471
 Alpha  occ. eigenvalues --  -10.54445 -10.54363 -10.52956 -10.51219 -10.51165
 Alpha  occ. eigenvalues --  -10.49455  -8.45590  -6.37813  -6.37778  -6.37624
 Alpha  occ. eigenvalues --   -1.22409  -1.13628  -1.13130  -1.10658  -1.09174
 Alpha  occ. eigenvalues --   -1.05712  -1.02267  -0.99172  -0.95874  -0.95025
 Alpha  occ. eigenvalues --   -0.93565  -0.90302  -0.88726  -0.86277  -0.85449
 Alpha  occ. eigenvalues --   -0.84863  -0.84791  -0.84001  -0.83089  -0.82968
 Alpha  occ. eigenvalues --   -0.76692  -0.76000  -0.75746  -0.74218  -0.73102
 Alpha  occ. eigenvalues --   -0.71787  -0.68270  -0.68140  -0.67882  -0.67439
 Alpha  occ. eigenvalues --   -0.66581  -0.65395  -0.64807  -0.63505  -0.60500
 Alpha  occ. eigenvalues --   -0.60342  -0.59647  -0.59579  -0.57753  -0.57705
 Alpha  occ. eigenvalues --   -0.57293  -0.56491  -0.55826  -0.55136  -0.54284
 Alpha  occ. eigenvalues --   -0.53614  -0.52895  -0.52631  -0.52473  -0.51979
 Alpha  occ. eigenvalues --   -0.51621  -0.50894  -0.50407  -0.49932  -0.49381
 Alpha  occ. eigenvalues --   -0.49125  -0.48982  -0.48262  -0.48121  -0.47854
 Alpha  occ. eigenvalues --   -0.47779  -0.47564  -0.47084  -0.46255  -0.45990
 Alpha  occ. eigenvalues --   -0.45060  -0.44778  -0.44277  -0.43808  -0.43276
 Alpha  occ. eigenvalues --   -0.42594  -0.42200  -0.41191  -0.41135  -0.40959
 Alpha  occ. eigenvalues --   -0.40776  -0.40549  -0.39964  -0.39799  -0.39279
 Alpha  occ. eigenvalues --   -0.39200  -0.39065  -0.38401  -0.38230  -0.37807
 Alpha  occ. eigenvalues --   -0.37294  -0.36622  -0.36426  -0.35994  -0.34958
 Alpha  occ. eigenvalues --   -0.34434  -0.34141  -0.31834  -0.31228  -0.29819
 Alpha  occ. eigenvalues --   -0.28895  -0.28611  -0.27735  -0.24218  -0.24008
 Alpha virt. eigenvalues --   -0.01428   0.00397   0.03451   0.03709   0.10121
 Alpha virt. eigenvalues --    0.10715   0.11451   0.12412   0.13166   0.13299
 Alpha virt. eigenvalues --    0.14165   0.14356   0.14745   0.15347   0.15575

 Mulliken charges:
               1
     1  C   -0.306395
     2  C   -0.307549
     3  C   -0.309999
     4  C   -0.058866
     5  C    0.055885
     6  C   -0.309691
     7  H    0.175007
     8  H    0.163082
     9  H    0.166502
    10  H    0.150871
    11  H    0.164718
    12  H    0.207381
    13  H    0.175346
    14  H    0.194943
    15  H    0.163494
    16  H    0.155724
    17  N   -0.434885
    18  C    0.071185
    19  C    0.067757
    20  C   -0.203801
    21  H    0.205230
    22  C   -0.212191
    23  H    0.243581
    24  C    0.448197
    25  H    0.192516
    26  H    0.210931
    27  N   -0.522559
    28  C   -0.168677
    29  H    0.168326
    30  H    0.225753
    31  C   -0.150787
    32  H    0.162675
    33  H    0.206221
    34  N   -0.803074
    35  S    1.247500
    36  O   -0.605849
    37  O   -0.598415
    38  C    0.070424
    39  C   -0.192446
    40  C   -0.191160
    41  C   -0.172615
    42  C   -0.164765
    43  C   -0.209219
    44  H    0.223115
    45  H    0.140298
    46  H    0.155065
    47  H    0.158567
    48  H    0.152321
    49  O   -0.564769
    50  H    0.440763
    51  C    0.719395
    52  O   -0.714988
    53  O   -0.713435
    54  H    0.437181
    55  C   -0.338596
    56  H    0.145896
    57  H    0.150069
    58  C   -0.084945
    59  H    0.135634
    60  H    0.150140
    61  C   -0.664455
    62  H    0.276379
    63  H    0.198290
    64  H    0.219727
    65  C   -0.288048
    66  H    0.135547
    67  H    0.143572
    68  C   -0.473841
    69  H    0.148079
    70  H    0.151716
    71  H    0.147314
    72  C   -0.333138
    73  H    0.186124
    74  H    0.161389
    75  C   -0.341016
    76  H    0.201611
    77  H    0.168734
 Sum of Mulliken charges =  -0.00000

 Dipole moment (field-independent basis, Debye):
    X=             -3.2176    Y=             -2.1521    Z=             -6.0186  Tot=              7.1560
 Quadrupole moment (field-independent basis, Debye-Ang):
   XX=           -207.3136   YY=           -221.6766   ZZ=           -219.7829
   XY=            -12.9046   XZ=             -4.5453   YZ=             10.3490

 Normal termination of Gaussian 16 at Thu Feb  7 12:13:35 2019.
