 Gaussian 16, Revision A.03,
 Gaussian 16:  ES64L-G16RevA.03 25-Dec-2016

 ------------------------------------------
 #p M062X/6-31G* em=gd3 force int=ultrafine
 ------------------------------------------

 -----
 Title
 -----
 Symbolic Z-matrix:
 Charge =  0 Multiplicity = 1

                         Standard orientation:
 ---------------------------------------------------------------------
 Center     Atomic      Atomic             Coordinates (Angstroms)
 Number     Number       Type             X           Y           Z
 ---------------------------------------------------------------------
      1          6           0       -4.866313    0.245513   -0.463402
      2          6           0       -4.971891   -1.042776   -1.284911
      3          6           0       -3.608234   -1.429140   -1.871089
      4          6           0       -2.606477   -1.592145   -0.731934
      5          6           0       -2.454137   -0.273288    0.078733
      6          6           0       -3.824451    0.116654    0.652145
      7          1           0       -3.676099   -2.351078   -2.459913
      8          1           0       -5.335348   -1.858019   -0.645735
      9          1           0       -5.698134   -0.924146   -2.095909
     10          1           0       -4.570734    1.068533   -1.129514
     11          1           0       -5.844793    0.506857   -0.046556
     12          1           0       -2.946096   -2.382871   -0.056144
     13          1           0       -2.201873    0.494699   -0.668425
     14          1           0       -4.139181   -0.632448    1.389425
     15          1           0       -3.705529    1.073629    1.174209
     16          1           0       -3.289562   -0.622319   -2.545360
     17          7           0       -1.252372   -2.000577   -1.176267
     18          6           0       -0.618731   -1.331120   -2.167481
     19          6           0       -0.514044   -2.754143   -0.327197
     20          6           0        0.736065   -1.379042   -2.330690
     21          1           0       -1.245360   -0.728637   -2.812360
     22          6           0        0.845077   -2.848745   -0.424768
     23          1           0       -1.062626   -3.238222    0.473774
     24          6           0        1.539831   -2.080472   -1.389200
     25          1           0        1.182567   -0.821914   -3.143841
     26          1           0        1.364702   -3.422030    0.330029
     27          7           0        2.878361   -2.003607   -1.394450
     28          6           0        3.653318   -2.488412   -0.244403
     29          1           0        3.581574   -3.576428   -0.159079
     30          1           0        3.257831   -2.030471    0.673026
     31          6           0        3.594747   -0.938451   -2.114552
     32          1           0        3.860193   -1.277103   -3.123219
     33          1           0        2.964788   -0.047408   -2.179323
     34          7           0       -1.327314   -0.286443    0.983509
     35         16           0       -1.310788   -1.187457    2.282533
     36          8           0       -2.365837   -2.224015    2.306115
     37          8           0        0.070703   -1.697709    2.497366
     38          6           0       -0.902401    2.825964   -0.126907
     39          6           0       -0.273425    2.146300   -1.177777
     40          6           0       -0.884039    2.088265   -2.428982
     41          6           0       -2.137642    2.665535   -2.637667
     42          6           0       -2.780166    3.309312   -1.583288
     43          6           0       -2.159111    3.388545   -0.339313
     44          1           0        0.670975    1.634555   -0.999155
     45          1           0       -0.379701    1.585829   -3.251773
     46          1           0       -2.611713    2.614215   -3.613337
     47          1           0       -3.762447    3.750155   -1.723914
     48          1           0       -2.657485    3.885879    0.489345
     49          8           0        0.286091    1.727353    1.682326
     50          1           0       -0.294771    0.978564    1.332651
     51          6           0        2.440648    0.598106    1.169668
     52          8           0        2.092303    0.183984    0.079106
     53          8           0        2.276878   -0.079282    2.296358
     54          1           0        1.545841   -0.746653    2.195497
     55          6           0        3.175013    1.904419    1.367256
     56          1           0        2.642011    2.445031    2.155961
     57          1           0        4.175901    1.681441    1.761834
     58          6           0       -0.255111    2.934005    1.237008
     59          1           0       -0.995724    3.332865    1.948946
     60          1           0        0.568698    3.663265    1.198709
     61          6           0       -1.581809   -0.085389    3.669063
     62          1           0       -0.814581    0.689885    3.601777
     63          1           0       -2.578035    0.351384    3.575858
     64          1           0       -1.488395   -0.649570    4.597833
     65          6           0        3.265333    2.734405    0.090751
     66          1           0        3.672177    2.118162   -0.719870
     67          1           0        2.254989    3.014081   -0.229143
     68          6           0        4.119414    3.985746    0.274171
     69          1           0        4.202644    4.551944   -0.658083
     70          1           0        3.690474    4.649352    1.032386
     71          1           0        5.132199    3.723413    0.598960
     72          6           0        5.071160   -2.007757   -0.539797
     73          1           0        5.663736   -1.906091    0.371648
     74          1           0        5.578359   -2.713496   -1.205369
     75          6           0        4.832728   -0.674306   -1.251874
     76          1           0        4.589946    0.096940   -0.515878
     77          1           0        5.687264   -0.336220   -1.841570
 ---------------------------------------------------------------------

 SCF Done:  E(RM062X) =  -1991.38458633     A.U. after   15 cycles

 The electronic state is 1-A.
 Alpha  occ. eigenvalues --  -90.10263 -19.63579 -19.60165 -19.58860 -19.58387
 Alpha  occ. eigenvalues --  -19.58301 -14.84788 -14.80434 -14.69298 -10.65703
 Alpha  occ. eigenvalues --  -10.63209 -10.62423 -10.61563 -10.59201 -10.59086
 Alpha  occ. eigenvalues --  -10.58926 -10.57825 -10.57375 -10.56768 -10.56706
 Alpha  occ. eigenvalues --  -10.55952 -10.55701 -10.55607 -10.55053 -10.54986
 Alpha  occ. eigenvalues --  -10.54916 -10.54641 -10.54602 -10.54512 -10.53933
 Alpha  occ. eigenvalues --  -10.53592 -10.53424 -10.53418 -10.53388 -10.52837
 Alpha  occ. eigenvalues --  -10.52627  -8.41219  -6.33456  -6.33365  -6.33285
 Alpha  occ. eigenvalues --   -1.19321  -1.17742  -1.12923  -1.10133  -1.09999
 Alpha  occ. eigenvalues --   -1.09083  -1.06026  -0.97530  -0.95341  -0.94741
 Alpha  occ. eigenvalues --   -0.92188  -0.89820  -0.88557  -0.88294  -0.85083
 Alpha  occ. eigenvalues --   -0.84854  -0.83695  -0.83532  -0.83288  -0.80056
 Alpha  occ. eigenvalues --   -0.79352  -0.76316  -0.75615  -0.74666  -0.70942
 Alpha  occ. eigenvalues --   -0.70252  -0.69303  -0.68668  -0.68341  -0.68085
 Alpha  occ. eigenvalues --   -0.65961  -0.64755  -0.63920  -0.63500  -0.61604
 Alpha  occ. eigenvalues --   -0.60265  -0.59367  -0.59085  -0.58354  -0.56156
 Alpha  occ. eigenvalues --   -0.55612  -0.55270  -0.55152  -0.54357  -0.53858
 Alpha  occ. eigenvalues --   -0.53456  -0.53052  -0.52597  -0.51880  -0.51654
 Alpha  occ. eigenvalues --   -0.51076  -0.50954  -0.50618  -0.50032  -0.49829
 Alpha  occ. eigenvalues --   -0.49685  -0.49525  -0.48778  -0.48314  -0.48014
 Alpha  occ. eigenvalues --   -0.47786  -0.47217  -0.47068  -0.46981  -0.45839
 Alpha  occ. eigenvalues --   -0.45583  -0.45196  -0.43952  -0.43688  -0.43464
 Alpha  occ. eigenvalues --   -0.42895  -0.42812  -0.42160  -0.42048  -0.41838
 Alpha  occ. eigenvalues --   -0.41200  -0.40921  -0.40519  -0.39878  -0.39620
 Alpha  occ. eigenvalues --   -0.39376  -0.39314  -0.39024  -0.38403  -0.38051
 Alpha  occ. eigenvalues --   -0.37366  -0.36259  -0.35821  -0.35336  -0.35180
 Alpha  occ. eigenvalues --   -0.34276  -0.33005  -0.31991  -0.31664  -0.31349
 Alpha  occ. eigenvalues --   -0.29941  -0.28824  -0.28330  -0.27336  -0.25349
 Alpha virt. eigenvalues --   -0.01056   0.00679   0.03142   0.03711   0.08879
 Alpha virt. eigenvalues --    0.10169   0.10953   0.11797   0.12959   0.13530
 Alpha virt. eigenvalues --    0.13810   0.14312   0.14985   0.15472   0.15858

 Mulliken charges:
               1
     1  C   -0.303947
     2  C   -0.304261
     3  C   -0.309824
     4  C   -0.072093
     5  C    0.067181
     6  C   -0.304782
     7  H    0.166898
     8  H    0.161270
     9  H    0.159244
    10  H    0.145165
    11  H    0.156993
    12  H    0.210069
    13  H    0.140540
    14  H    0.180538
    15  H    0.150280
    16  H    0.149885
    17  N   -0.424032
    18  C    0.097548
    19  C    0.088574
    20  C   -0.226413
    21  H    0.204588
    22  C   -0.226960
    23  H    0.260869
    24  C    0.426890
    25  H    0.187565
    26  H    0.207742
    27  N   -0.526937
    28  C   -0.158906
    29  H    0.178206
    30  H    0.198157
    31  C   -0.145872
    32  H    0.169568
    33  H    0.194142
    34  N   -0.765713
    35  S    1.247446
    36  O   -0.640576
    37  O   -0.669009
    38  C    0.050769
    39  C   -0.176137
    40  C   -0.188593
    41  C   -0.169499
    42  C   -0.160831
    43  C   -0.199641
    44  H    0.204437
    45  H    0.139582
    46  H    0.157019
    47  H    0.162302
    48  H    0.158366
    49  O   -0.717248
    50  H    0.485545
    51  C    0.660673
    52  O   -0.520877
    53  O   -0.646033
    54  H    0.483788
    55  C   -0.373286
    56  H    0.202663
    57  H    0.166217
    58  C   -0.063191
    59  H    0.126887
    60  H    0.146243
    61  C   -0.662746
    62  H    0.228385
    63  H    0.185809
    64  H    0.206065
    65  C   -0.290071
    66  H    0.146271
    67  H    0.162116
    68  C   -0.480460
    69  H    0.159513
    70  H    0.158594
    71  H    0.151855
    72  C   -0.336396
    73  H    0.184396
    74  H    0.169703
    75  C   -0.335683
    76  H    0.180653
    77  H    0.172806
 Sum of Mulliken charges =  -0.00000

 Dipole moment (field-independent basis, Debye):
    X=              1.5976    Y=             -0.0454    Z=             -6.7072  Tot=              6.8950
 Quadrupole moment (field-independent basis, Debye-Ang):
   XX=           -199.7486   YY=           -222.4556   ZZ=           -222.7406
   XY=            -11.6110   XZ=              0.4235   YZ=             12.8832

 Normal termination of Gaussian 16 at Thu Feb  7 22:17:43 2019.
