 Gaussian 16, Revision A.03,
 Gaussian 16:  ES64L-G16RevA.03 25-Dec-2016

 ------------------------------------------
 #p M062X/6-31G* em=gd3 force int=ultrafine
 ------------------------------------------

 -----
 Title
 -----
 Symbolic Z-matrix:
 Charge =  0 Multiplicity = 1

                         Standard orientation:
 ---------------------------------------------------------------------
 Center     Atomic      Atomic             Coordinates (Angstroms)
 Number     Number       Type             X           Y           Z
 ---------------------------------------------------------------------
      1          6           0       -4.865248    0.506396   -0.557258
      2          6           0       -5.035498   -0.791236   -1.352557
      3          6           0       -3.694156   -1.255645   -1.932612
      4          6           0       -2.701942   -1.460021   -0.792187
      5          6           0       -2.501893   -0.145731    0.000640
      6          6           0       -3.838018    0.344472    0.566533
      7          1           0       -3.805402   -2.181807   -2.506375
      8          1           0       -5.437785   -1.574860   -0.697179
      9          1           0       -5.756561   -0.651617   -2.163950
     10          1           0       -4.529090    1.302295   -1.235796
     11          1           0       -5.827205    0.822733   -0.141399
     12          1           0       -3.088365   -2.223442   -0.109061
     13          1           0       -2.152676    0.607637   -0.717223
     14          1           0       -4.202649   -0.367179    1.314981
     15          1           0       -3.661056    1.303292    1.066713
     16          1           0       -3.329795   -0.477697   -2.616918
     17          7           0       -1.371358   -1.938524   -1.222271
     18          6           0       -0.685253   -1.288172   -2.200116
     19          6           0       -0.678447   -2.736878   -0.367625
     20          6           0        0.665561   -1.385343   -2.330218
     21          1           0       -1.272958   -0.659669   -2.856943
     22          6           0        0.674048   -2.870921   -0.423959
     23          1           0       -1.265301   -3.220059    0.405836
     24          6           0        1.424362   -2.106344   -1.359581
     25          1           0        1.154191   -0.839965   -3.126557
     26          1           0        1.157138   -3.474232    0.331448
     27          7           0        2.751407   -2.076716   -1.330788
     28          6           0        3.486952   -2.574014   -0.156958
     29          1           0        3.344428   -3.652071   -0.039612
     30          1           0        3.115982   -2.035888    0.726913
     31          6           0        3.521732   -1.040384   -2.039530
     32          1           0        3.782133   -1.392108   -3.045658
     33          1           0        2.926689   -0.125958   -2.090042
     34          7           0       -1.417149   -0.244263    0.961155
     35         16           0       -1.428341   -1.105660    2.347158
     36          8           0       -2.663341   -1.892483    2.352806
     37          8           0       -0.155930   -1.814568    2.483240
     38          6           0       -0.527753    2.667479   -0.073123
     39          6           0       -0.045097    2.072363   -1.247098
     40          6           0       -0.784279    2.148693   -2.427339
     41          6           0       -2.018460    2.797778   -2.458414
     42          6           0       -2.510416    3.380460   -1.292013
     43          6           0       -1.765908    3.315398   -0.114542
     44          1           0        0.886160    1.509393   -1.191689
     45          1           0       -0.387250    1.700418   -3.336102
     46          1           0       -2.588201    2.855498   -3.381768
     47          1           0       -3.471032    3.888134   -1.299006
     48          1           0       -2.156005    3.775823    0.791072
     49          8           0        0.703147    1.392050    1.677558
     50          1           0       -0.511051    0.218584    0.788798
     51          6           0        2.032134    0.755622    1.172255
     52          8           0        1.848222    0.187229    0.026304
     53          8           0        2.283367   -0.131368    2.246022
     54          1           0        1.579661   -0.802862    2.188924
     55          6           0        3.136775    1.830404    1.259506
     56          1           0        2.931497    2.512377    2.094610
     57          1           0        4.057568    1.296839    1.528962
     58          6           0        0.264285    2.644818    1.231954
     59          1           0       -0.393538    3.047169    2.017000
     60          1           0        1.102926    3.351227    1.151497
     61          6           0       -1.461994    0.113041    3.641374
     62          1           0       -0.573413    0.732898    3.486329
     63          1           0       -2.382091    0.691651    3.546832
     64          1           0       -1.423209   -0.411845    4.597228
     65          6           0        3.378191    2.603893   -0.034617
     66          1           0        3.647286    1.893280   -0.824463
     67          1           0        2.457078    3.085439   -0.383668
     68          6           0        4.472172    3.656961    0.126450
     69          1           0        4.665035    4.190382   -0.809555
     70          1           0        4.191400    4.398554    0.882744
     71          1           0        5.411732    3.197522    0.453357
     72          6           0        4.929454   -2.189707   -0.463703
     73          1           0        5.534997   -2.132484    0.442677
     74          1           0        5.383735   -2.920221   -1.142600
     75          6           0        4.752921   -0.836917   -1.154347
     76          1           0        4.501347   -0.083446   -0.402669
     77          1           0        5.627744   -0.512318   -1.721837
 ---------------------------------------------------------------------

 SCF Done:  E(RM062X) =  -1991.35578718     A.U. after   15 cycles

 The electronic state is 1-A.
 Alpha  occ. eigenvalues --  -90.14800 -19.62394 -19.62155 -19.58640 -19.56858
 Alpha  occ. eigenvalues --  -19.50480 -14.85208 -14.80052 -14.76687 -10.63171
 Alpha  occ. eigenvalues --  -10.62633 -10.62146 -10.62088 -10.61093 -10.59900
 Alpha  occ. eigenvalues --  -10.57784 -10.57774 -10.57609 -10.57041 -10.56993
 Alpha  occ. eigenvalues --  -10.56907 -10.56313 -10.55888 -10.55101 -10.55098
 Alpha  occ. eigenvalues --  -10.55018 -10.54857 -10.54689 -10.54662 -10.54655
 Alpha  occ. eigenvalues --  -10.54472 -10.54084 -10.53098 -10.51089 -10.50976
 Alpha  occ. eigenvalues --  -10.49488  -8.45768  -6.37996  -6.37948  -6.37812
 Alpha  occ. eigenvalues --   -1.22582  -1.13490  -1.12890  -1.10795  -1.08898
 Alpha  occ. eigenvalues --   -1.05864  -1.02514  -0.99682  -0.95857  -0.95204
 Alpha  occ. eigenvalues --   -0.93490  -0.90147  -0.88588  -0.86542  -0.85326
 Alpha  occ. eigenvalues --   -0.84945  -0.84865  -0.83720  -0.83283  -0.83087
 Alpha  occ. eigenvalues --   -0.76587  -0.75934  -0.75573  -0.74286  -0.73288
 Alpha  occ. eigenvalues --   -0.71779  -0.68227  -0.68162  -0.67762  -0.67503
 Alpha  occ. eigenvalues --   -0.66454  -0.65496  -0.64854  -0.63364  -0.60496
 Alpha  occ. eigenvalues --   -0.60371  -0.59961  -0.59456  -0.57914  -0.57694
 Alpha  occ. eigenvalues --   -0.57177  -0.56425  -0.55715  -0.55117  -0.54377
 Alpha  occ. eigenvalues --   -0.53576  -0.53089  -0.52693  -0.52489  -0.52154
 Alpha  occ. eigenvalues --   -0.51701  -0.50800  -0.50165  -0.49913  -0.49343
 Alpha  occ. eigenvalues --   -0.49229  -0.48972  -0.48456  -0.48159  -0.47991
 Alpha  occ. eigenvalues --   -0.47739  -0.47624  -0.47170  -0.46144  -0.45807
 Alpha  occ. eigenvalues --   -0.45216  -0.45125  -0.44378  -0.43939  -0.43213
 Alpha  occ. eigenvalues --   -0.42493  -0.42311  -0.41148  -0.40907  -0.40786
 Alpha  occ. eigenvalues --   -0.40672  -0.40416  -0.40080  -0.39835  -0.39390
 Alpha  occ. eigenvalues --   -0.39192  -0.38894  -0.38622  -0.38344  -0.37839
 Alpha  occ. eigenvalues --   -0.37370  -0.36499  -0.36428  -0.36080  -0.35005
 Alpha  occ. eigenvalues --   -0.34503  -0.34271  -0.31757  -0.31358  -0.30004
 Alpha  occ. eigenvalues --   -0.29232  -0.28823  -0.27747  -0.24122  -0.23886
 Alpha virt. eigenvalues --   -0.01245   0.00557   0.03228   0.03558   0.10137
 Alpha virt. eigenvalues --    0.10587   0.11325   0.12555   0.13169   0.13290
 Alpha virt. eigenvalues --    0.14124   0.14435   0.14998   0.15499   0.15552

 Mulliken charges:
               1
     1  C   -0.306391
     2  C   -0.307815
     3  C   -0.310862
     4  C   -0.059719
     5  C    0.063091
     6  C   -0.307219
     7  H    0.175589
     8  H    0.163258
     9  H    0.166842
    10  H    0.150950
    11  H    0.165047
    12  H    0.206853
    13  H    0.175232
    14  H    0.193393
    15  H    0.161454
    16  H    0.156180
    17  N   -0.437510
    18  C    0.077483
    19  C    0.077512
    20  C   -0.207769
    21  H    0.203268
    22  C   -0.219231
    23  H    0.243077
    24  C    0.449827
    25  H    0.192102
    26  H    0.209901
    27  N   -0.518808
    28  C   -0.166683
    29  H    0.166893
    30  H    0.222838
    31  C   -0.146362
    32  H    0.160469
    33  H    0.205677
    34  N   -0.805806
    35  S    1.239845
    36  O   -0.603161
    37  O   -0.591395
    38  C    0.052324
    39  C   -0.196049
    40  C   -0.192202
    41  C   -0.172261
    42  C   -0.165500
    43  C   -0.205228
    44  H    0.232172
    45  H    0.141827
    46  H    0.156103
    47  H    0.159664
    48  H    0.153872
    49  O   -0.589888
    50  H    0.446323
    51  C    0.717152
    52  O   -0.698227
    53  O   -0.705767
    54  H    0.432027
    55  C   -0.340699
    56  H    0.143249
    57  H    0.150502
    58  C   -0.082485
    59  H    0.132510
    60  H    0.155955
    61  C   -0.665656
    62  H    0.270058
    63  H    0.200117
    64  H    0.222349
    65  C   -0.285422
    66  H    0.141638
    67  H    0.140233
    68  C   -0.474484
    69  H    0.147923
    70  H    0.149644
    71  H    0.148033
    72  C   -0.333823
    73  H    0.184764
    74  H    0.159944
    75  C   -0.338694
    76  H    0.204531
    77  H    0.165422
 Sum of Mulliken charges =  -0.00000

 Dipole moment (field-independent basis, Debye):
    X=             -3.6215    Y=             -1.6930    Z=             -5.7405  Tot=              6.9954
 Quadrupole moment (field-independent basis, Debye-Ang):
   XX=           -208.6400   YY=           -222.1084   ZZ=           -218.5617
   XY=            -13.2860   XZ=             -4.1079   YZ=             10.7103

 Normal termination of Gaussian 16 at Thu Feb  7 10:43:05 2019.
