 Gaussian 16, Revision A.03,
 Gaussian 16:  ES64L-G16RevA.03 25-Dec-2016

 ------------------------------------------
 #p M062X/6-31G* em=gd3 force int=ultrafine
 ------------------------------------------

 -----
 Title
 -----
 Symbolic Z-matrix:
 Charge =  0 Multiplicity = 1

                         Standard orientation:
 ---------------------------------------------------------------------
 Center     Atomic      Atomic             Coordinates (Angstroms)
 Number     Number       Type             X           Y           Z
 ---------------------------------------------------------------------
      1          6           0       -4.783445    0.331535   -0.651141
      2          6           0       -4.922614   -0.973157   -1.441223
      3          6           0       -3.569833   -1.408347   -2.017754
      4          6           0       -2.582128   -1.579831   -0.869537
      5          6           0       -2.396719   -0.248556   -0.095257
      6          6           0       -3.746774    0.208127    0.469929
      7          1           0       -3.658316   -2.341173   -2.584994
      8          1           0       -5.305681   -1.764321   -0.783411
      9          1           0       -5.646831   -0.853531   -2.253119
     10          1           0       -4.476975    1.133333   -1.335534
     11          1           0       -5.752116    0.620494   -0.230419
     12          1           0       -2.962926   -2.335318   -0.175260
     13          1           0       -2.075667    0.503283   -0.827768
     14          1           0       -4.092936   -0.509894    1.220707
     15          1           0       -3.600662    1.174940    0.962979
     16          1           0       -3.222482   -0.626660   -2.706794
     17          7           0       -1.239989   -2.044991   -1.276504
     18          6           0       -0.554499   -1.391083   -2.250871
     19          6           0       -0.541397   -2.790563   -0.378318
     20          6           0        0.803446   -1.425808   -2.331802
     21          1           0       -1.149580   -0.811400   -2.945608
     22          6           0        0.817318   -2.849117   -0.376476
     23          1           0       -1.133401   -3.281669    0.386342
     24          6           0        1.555749   -2.060757   -1.298882
     25          1           0        1.292638   -0.884873   -3.130278
     26          1           0        1.303584   -3.398651    0.417048
     27          7           0        2.874690   -1.929224   -1.206056
     28          6           0        3.597526   -2.300047    0.020931
     29          1           0        3.496854   -3.370738    0.218941
     30          1           0        3.179176   -1.716079    0.854506
     31          6           0        3.598444   -0.901171   -1.963782
     32          1           0        3.851630   -1.279398   -2.961848
     33          1           0        2.963515   -0.015554   -2.056533
     34          7           0       -1.301945   -0.305357    0.860314
     35         16           0       -1.381294   -1.129610    2.262835
     36          8           0       -2.567151   -1.991965    2.233271
     37          8           0       -0.085386   -1.770127    2.506341
     38          6           0       -0.646373    2.704774    0.041911
     39          6           0       -0.172736    2.243748   -1.196112
     40          6           0       -0.969293    2.321907   -2.336353
     41          6           0       -2.257682    2.853242   -2.272628
     42          6           0       -2.743012    3.306052   -1.049537
     43          6           0       -1.938959    3.233050    0.088400
     44          1           0        0.800976    1.771850   -1.236875
     45          1           0       -0.575240    1.970705   -3.287074
     46          1           0       -2.873512    2.917975   -3.165470
     47          1           0       -3.744575    3.721684   -0.978695
     48          1           0       -2.325391    3.601905    1.036569
     49          8           0        0.671205    1.589807    1.903643
     50          1           0       -0.308145   -0.059694    0.558466
     51          6           0        1.792885    0.847180    1.259341
     52          8           0        1.371891    0.234945    0.170055
     53          8           0        2.184617   -0.030586    2.299957
     54          1           0        1.476026   -0.698313    2.352253
     55          6           0        3.009952    1.800248    1.112077
     56          1           0        2.988560    2.526197    1.934612
     57          1           0        3.893154    1.175296    1.295964
     58          6           0        0.210520    2.772225    1.309168
     59          1           0       -0.403860    3.260294    2.076753
     60          1           0        1.050885    3.454900    1.115519
     61          6           0       -1.588841    0.105195    3.524747
     62          1           0       -0.729481    0.775489    3.434624
     63          1           0       -2.527521    0.629250    3.336409
     64          1           0       -1.612809   -0.404143    4.489559
     65          6           0        3.189053    2.510316   -0.226770
     66          1           0        3.105099    1.771699   -1.032105
     67          1           0        2.386477    3.234290   -0.408302
     68          6           0        4.535565    3.228228   -0.312718
     69          1           0        4.665766    3.734842   -1.274041
     70          1           0        4.627800    3.980685    0.478140
     71          1           0        5.365508    2.522536   -0.188138
     72          6           0        5.032928   -1.892613   -0.294109
     73          1           0        5.617476   -1.730260    0.613318
     74          1           0        5.524410   -2.668111   -0.891593
     75          6           0        4.841785   -0.615123   -1.115857
     76          1           0        4.624505    0.217812   -0.442888
     77          1           0        5.708884   -0.353444   -1.725993
 ---------------------------------------------------------------------

 SCF Done:  E(RM062X) =  -1991.35892682     A.U. after   14 cycles

 The electronic state is 1-A.
 Alpha  occ. eigenvalues --  -90.14056 -19.61675 -19.61660 -19.58787 -19.56744
 Alpha  occ. eigenvalues --  -19.51395 -14.85124 -14.80458 -14.75475 -10.63383
 Alpha  occ. eigenvalues --  -10.62756 -10.62330 -10.62068 -10.60655 -10.59214
 Alpha  occ. eigenvalues --  -10.58711 -10.57921 -10.57883 -10.57062 -10.56864
 Alpha  occ. eigenvalues --  -10.56655 -10.55605 -10.55579 -10.55188 -10.55029
 Alpha  occ. eigenvalues --  -10.54760 -10.54716 -10.54643 -10.54484 -10.54321
 Alpha  occ. eigenvalues --  -10.54244 -10.54196 -10.53087 -10.51678 -10.51580
 Alpha  occ. eigenvalues --  -10.49799  -8.45035  -6.37250  -6.37229  -6.37073
 Alpha  occ. eigenvalues --   -1.21888  -1.13658  -1.13467  -1.10137  -1.09358
 Alpha  occ. eigenvalues --   -1.05909  -1.01591  -0.99412  -0.95680  -0.94942
 Alpha  occ. eigenvalues --   -0.93457  -0.90235  -0.88755  -0.85909  -0.85812
 Alpha  occ. eigenvalues --   -0.84789  -0.84646  -0.84328  -0.83013  -0.82605
 Alpha  occ. eigenvalues --   -0.76641  -0.76368  -0.75830  -0.74398  -0.72705
 Alpha  occ. eigenvalues --   -0.71564  -0.68341  -0.68290  -0.67915  -0.67148
 Alpha  occ. eigenvalues --   -0.66758  -0.65189  -0.64865  -0.63521  -0.60578
 Alpha  occ. eigenvalues --   -0.60407  -0.59799  -0.58839  -0.57837  -0.57550
 Alpha  occ. eigenvalues --   -0.57127  -0.56421  -0.55698  -0.55154  -0.54166
 Alpha  occ. eigenvalues --   -0.53451  -0.52630  -0.52390  -0.52351  -0.51872
 Alpha  occ. eigenvalues --   -0.51521  -0.51087  -0.50950  -0.49842  -0.49594
 Alpha  occ. eigenvalues --   -0.49160  -0.48803  -0.48205  -0.48107  -0.48068
 Alpha  occ. eigenvalues --   -0.47620  -0.47424  -0.46892  -0.46471  -0.46091
 Alpha  occ. eigenvalues --   -0.44927  -0.44662  -0.44081  -0.43882  -0.43248
 Alpha  occ. eigenvalues --   -0.42440  -0.42077  -0.41559  -0.41433  -0.41194
 Alpha  occ. eigenvalues --   -0.40876  -0.40443  -0.40020  -0.39853  -0.39501
 Alpha  occ. eigenvalues --   -0.39243  -0.39040  -0.38441  -0.37876  -0.37580
 Alpha  occ. eigenvalues --   -0.37351  -0.36727  -0.36568  -0.35677  -0.34870
 Alpha  occ. eigenvalues --   -0.34343  -0.33880  -0.31749  -0.30969  -0.29711
 Alpha  occ. eigenvalues --   -0.28884  -0.28553  -0.27570  -0.24994  -0.24527
 Alpha virt. eigenvalues --   -0.01413   0.00492   0.03626   0.03841   0.10200
 Alpha virt. eigenvalues --    0.11060   0.11574   0.12089   0.13218   0.13550
 Alpha virt. eigenvalues --    0.14209   0.14679   0.14817   0.15354   0.15599

 Mulliken charges:
               1
     1  C   -0.306062
     2  C   -0.306890
     3  C   -0.310244
     4  C   -0.059105
     5  C    0.057054
     6  C   -0.311805
     7  H    0.173725
     8  H    0.162850
     9  H    0.165096
    10  H    0.150529
    11  H    0.162908
    12  H    0.208386
    13  H    0.172462
    14  H    0.193659
    15  H    0.163306
    16  H    0.153688
    17  N   -0.432430
    18  C    0.069989
    19  C    0.064589
    20  C   -0.205278
    21  H    0.207000
    22  C   -0.209152
    23  H    0.245853
    24  C    0.450824
    25  H    0.190824
    26  H    0.211770
    27  N   -0.529192
    28  C   -0.175770
    29  H    0.169937
    30  H    0.236645
    31  C   -0.153999
    32  H    0.168381
    33  H    0.200441
    34  N   -0.817266
    35  S    1.253919
    36  O   -0.611703
    37  O   -0.609477
    38  C    0.090997
    39  C   -0.177896
    40  C   -0.188764
    41  C   -0.170495
    42  C   -0.163626
    43  C   -0.212115
    44  H    0.203143
    45  H    0.141239
    46  H    0.154518
    47  H    0.158172
    48  H    0.152067
    49  O   -0.547856
    50  H    0.449783
    51  C    0.728046
    52  O   -0.724501
    53  O   -0.718230
    54  H    0.445776
    55  C   -0.337448
    56  H    0.150391
    57  H    0.148382
    58  C   -0.094693
    59  H    0.141375
    60  H    0.146652
    61  C   -0.662651
    62  H    0.270739
    63  H    0.196319
    64  H    0.217314
    65  C   -0.295858
    66  H    0.141787
    67  H    0.146965
    68  C   -0.476017
    69  H    0.149545
    70  H    0.156255
    71  H    0.143894
    72  C   -0.331884
    73  H    0.187576
    74  H    0.163700
    75  C   -0.344327
    76  H    0.194365
    77  H    0.171899
 Sum of Mulliken charges =  -0.00000

 Dipole moment (field-independent basis, Debye):
    X=             -2.0935    Y=             -1.9104    Z=             -6.4893  Tot=              7.0812
 Quadrupole moment (field-independent basis, Debye-Ang):
   XX=           -204.7290   YY=           -223.2410   ZZ=           -219.8834
   XY=            -12.0915   XZ=             -5.2349   YZ=             10.1863

 Normal termination of Gaussian 16 at Thu Feb  7 17:05:53 2019.
