 Gaussian 16, Revision A.03,
 Gaussian 16:  ES64L-G16RevA.03 25-Dec-2016

 ------------------------------------------
 #p M062X/6-31G* em=gd3 force int=ultrafine
 ------------------------------------------

 -----
 Title
 -----
 Symbolic Z-matrix:
 Charge =  0 Multiplicity = 1

                         Standard orientation:
 ---------------------------------------------------------------------
 Center     Atomic      Atomic             Coordinates (Angstroms)
 Number     Number       Type             X           Y           Z
 ---------------------------------------------------------------------
      1          6           0       -4.842479    0.523099   -0.521196
      2          6           0       -5.012115   -0.744072   -1.364346
      3          6           0       -3.669208   -1.189448   -1.955945
      4          6           0       -2.683070   -1.442492   -0.820053
      5          6           0       -2.483753   -0.160977    0.024994
      6          6           0       -3.821194    0.315656    0.600199
      7          1           0       -3.780704   -2.091243   -2.567294
      8          1           0       -5.418719   -1.550425   -0.739913
      9          1           0       -5.729303   -0.573073   -2.173152
     10          1           0       -4.499277    1.342117   -1.168130
     11          1           0       -5.805620    0.827660   -0.099341
     12          1           0       -3.073898   -2.232113   -0.170166
     13          1           0       -2.126041    0.615849   -0.663513
     14          1           0       -4.191770   -0.420354    1.322196
     15          1           0       -3.641548    1.255836    1.134489
     16          1           0       -3.299768   -0.384839   -2.605907
     17          7           0       -1.350809   -1.906824   -1.263692
     18          6           0       -0.667374   -1.231705   -2.225049
     19          6           0       -0.655327   -2.725244   -0.430927
     20          6           0        0.683762   -1.324382   -2.360902
     21          1           0       -1.256478   -0.587360   -2.864671
     22          6           0        0.697563   -2.858599   -0.494978
     23          1           0       -1.240122   -3.229870    0.330320
     24          6           0        1.445346   -2.072491   -1.414191
     25          1           0        1.169693   -0.759624   -3.145428
     26          1           0        1.182166   -3.482892    0.242323
     27          7           0        2.773594   -2.045871   -1.391704
     28          6           0        3.514593   -2.579954   -0.238410
     29          1           0        3.371873   -3.661139   -0.154046
     30          1           0        3.147583   -2.072332    0.664680
     31          6           0        3.544326   -0.994868   -2.078540
     32          1           0        3.798534   -1.322893   -3.094249
     33          1           0        2.954177   -0.076292   -2.105496
     34          7           0       -1.400710   -0.313322    0.979363
     35         16           0       -1.437028   -1.218169    2.332872
     36          8           0       -2.654243   -2.032079    2.285371
     37          8           0       -0.153994   -1.907854    2.477536
     38          6           0       -0.568949    2.703752   -0.061159
     39          6           0       -0.050426    2.078170   -1.202514
     40          6           0       -0.735013    2.157434   -2.414593
     41          6           0       -1.954211    2.829498   -2.504345
     42          6           0       -2.483586    3.437306   -1.367298
     43          6           0       -1.789992    3.376420   -0.158818
     44          1           0        0.865664    1.494479   -1.100586
     45          1           0       -0.310234    1.690348   -3.301089
     46          1           0       -2.483905    2.885775   -3.451254
     47          1           0       -3.434082    3.960897   -1.421784
     48          1           0       -2.208052    3.854533    0.724901
     49          8           0        0.607013    1.358594    1.629473
     50          1           0       -0.553333    0.298373    0.948411
     51          6           0        2.059811    0.724854    1.201122
     52          8           0        1.961363    0.180732    0.050001
     53          8           0        2.217451   -0.146577    2.288047
     54          1           0        1.549920   -0.846235    2.165097
     55          6           0        3.086153    1.852972    1.384629
     56          1           0        2.794980    2.496686    2.223504
     57          1           0        4.020719    1.363566    1.689617
     58          6           0        0.170530    2.635613    1.269328
     59          1           0       -0.518509    2.993326    2.052268
     60          1           0        1.004229    3.354065    1.255555
     61          6           0       -1.516397   -0.039819    3.664047
     62          1           0       -0.647523    0.612539    3.529692
     63          1           0       -2.453266    0.513403    3.582107
     64          1           0       -1.462035   -0.586720    4.606524
     65          6           0        3.343131    2.667372    0.119596
     66          1           0        3.703192    1.992110   -0.665005
     67          1           0        2.408097    3.087657   -0.269275
     68          6           0        4.349156    3.790843    0.356475
     69          1           0        4.549326    4.356553   -0.558707
     70          1           0        3.978459    4.494024    1.110761
     71          1           0        5.301935    3.391919    0.722085
     72          6           0        4.956365   -2.187677   -0.539745
     73          1           0        5.565832   -2.156211    0.365286
     74          1           0        5.407021   -2.900627   -1.239381
     75          6           0        4.780615   -0.816931   -1.194787
     76          1           0        4.534519   -0.080059   -0.424959
     77          1           0        5.653932   -0.483094   -1.759193
 ---------------------------------------------------------------------

 SCF Done:  E(RM062X) =  -1991.35538925     A.U. after   15 cycles

 The electronic state is 1-A.
 Alpha  occ. eigenvalues --  -90.14553 -19.62252 -19.61919 -19.58078 -19.57503
 Alpha  occ. eigenvalues --  -19.51350 -14.85181 -14.80114 -14.76070 -10.63195
 Alpha  occ. eigenvalues --  -10.62618 -10.62561 -10.62130 -10.61015 -10.59725
 Alpha  occ. eigenvalues --  -10.57887 -10.57798 -10.57779 -10.56994 -10.56848
 Alpha  occ. eigenvalues --  -10.56824 -10.56322 -10.55815 -10.55069 -10.55015
 Alpha  occ. eigenvalues --  -10.54993 -10.54851 -10.54784 -10.54624 -10.54623
 Alpha  occ. eigenvalues --  -10.54344 -10.54170 -10.53100 -10.51156 -10.51064
 Alpha  occ. eigenvalues --  -10.49780  -8.45533  -6.37758  -6.37706  -6.37587
 Alpha  occ. eigenvalues --   -1.22362  -1.13443  -1.12789  -1.10558  -1.08946
 Alpha  occ. eigenvalues --   -1.05914  -1.02174  -1.00880  -0.95788  -0.95141
 Alpha  occ. eigenvalues --   -0.93474  -0.90122  -0.88597  -0.86425  -0.85506
 Alpha  occ. eigenvalues --   -0.84820  -0.84758  -0.83827  -0.83272  -0.82957
 Alpha  occ. eigenvalues --   -0.76578  -0.76151  -0.75587  -0.73922  -0.73146
 Alpha  occ. eigenvalues --   -0.71718  -0.68214  -0.68094  -0.67781  -0.67449
 Alpha  occ. eigenvalues --   -0.66398  -0.65432  -0.64847  -0.63339  -0.60498
 Alpha  occ. eigenvalues --   -0.60334  -0.59927  -0.59362  -0.57934  -0.57673
 Alpha  occ. eigenvalues --   -0.57180  -0.56351  -0.55581  -0.54959  -0.54321
 Alpha  occ. eigenvalues --   -0.53521  -0.52970  -0.52598  -0.52350  -0.52044
 Alpha  occ. eigenvalues --   -0.51619  -0.50898  -0.50173  -0.49977  -0.49437
 Alpha  occ. eigenvalues --   -0.49200  -0.48882  -0.48500  -0.48179  -0.48059
 Alpha  occ. eigenvalues --   -0.47711  -0.47591  -0.47107  -0.46370  -0.45908
 Alpha  occ. eigenvalues --   -0.45354  -0.45169  -0.44397  -0.44164  -0.43182
 Alpha  occ. eigenvalues --   -0.42469  -0.42312  -0.41226  -0.40973  -0.40782
 Alpha  occ. eigenvalues --   -0.40591  -0.40421  -0.40150  -0.39912  -0.39459
 Alpha  occ. eigenvalues --   -0.39030  -0.39019  -0.38706  -0.38220  -0.37682
 Alpha  occ. eigenvalues --   -0.37492  -0.36587  -0.36435  -0.35945  -0.35035
 Alpha  occ. eigenvalues --   -0.34629  -0.34296  -0.32064  -0.31086  -0.29939
 Alpha  occ. eigenvalues --   -0.29093  -0.28725  -0.27835  -0.24826  -0.24349
 Alpha virt. eigenvalues --   -0.01255   0.00563   0.03256   0.03681   0.10200
 Alpha virt. eigenvalues --    0.10640   0.11405   0.12514   0.13194   0.13333
 Alpha virt. eigenvalues --    0.14190   0.14394   0.15110   0.15525   0.15548

 Mulliken charges:
               1
     1  C   -0.306655
     2  C   -0.307742
     3  C   -0.311631
     4  C   -0.061292
     5  C    0.066160
     6  C   -0.306858
     7  H    0.175036
     8  H    0.163160
     9  H    0.166558
    10  H    0.152159
    11  H    0.164580
    12  H    0.208209
    13  H    0.173714
    14  H    0.191278
    15  H    0.160025
    16  H    0.156756
    17  N   -0.436744
    18  C    0.082531
    19  C    0.083243
    20  C   -0.212659
    21  H    0.203102
    22  C   -0.222678
    23  H    0.244889
    24  C    0.448014
    25  H    0.192136
    26  H    0.209566
    27  N   -0.519235
    28  C   -0.163082
    29  H    0.168052
    30  H    0.218400
    31  C   -0.145372
    32  H    0.161185
    33  H    0.205188
    34  N   -0.815311
    35  S    1.237343
    36  O   -0.605342
    37  O   -0.593790
    38  C    0.049780
    39  C   -0.198539
    40  C   -0.192702
    41  C   -0.172810
    42  C   -0.164885
    43  C   -0.205492
    44  H    0.234967
    45  H    0.140486
    46  H    0.155986
    47  H    0.159692
    48  H    0.154450
    49  O   -0.615877
    50  H    0.453281
    51  C    0.710446
    52  O   -0.671661
    53  O   -0.696123
    54  H    0.435541
    55  C   -0.338464
    56  H    0.147065
    57  H    0.150840
    58  C   -0.073998
    59  H    0.126403
    60  H    0.153210
    61  C   -0.667004
    62  H    0.265091
    63  H    0.200193
    64  H    0.223041
    65  C   -0.285758
    66  H    0.143505
    67  H    0.142134
    68  C   -0.475443
    69  H    0.148927
    70  H    0.149408
    71  H    0.148800
    72  C   -0.334602
    73  H    0.184291
    74  H    0.160813
    75  C   -0.338412
    76  H    0.205272
    77  H    0.165251
 Sum of Mulliken charges =  -0.00000

 Dipole moment (field-independent basis, Debye):
    X=             -3.2510    Y=             -1.5118    Z=             -5.7715  Tot=              6.7945
 Quadrupole moment (field-independent basis, Debye-Ang):
   XX=           -207.5251   YY=           -223.2025   ZZ=           -218.1101
   XY=            -13.6426   XZ=             -4.3512   YZ=             10.7816

 Normal termination of Gaussian 16 at Thu Feb  7 08:49:43 2019.
