 Gaussian 16, Revision A.03,
 Gaussian 16:  ES64L-G16RevA.03 25-Dec-2016

 ------------------------------------------
 #p M062X/6-31G* em=gd3 force int=ultrafine
 ------------------------------------------

 -----
 Title
 -----
 Symbolic Z-matrix:
 Charge =  0 Multiplicity = 1

                         Standard orientation:
 ---------------------------------------------------------------------
 Center     Atomic      Atomic             Coordinates (Angstroms)
 Number     Number       Type             X           Y           Z
 ---------------------------------------------------------------------
      1          6           0       -4.861241    0.522173   -0.546593
      2          6           0       -5.033083   -0.765624   -1.357313
      3          6           0       -3.691712   -1.225947   -1.940615
      4          6           0       -2.701726   -1.447560   -0.801366
      5          6           0       -2.500668   -0.144370    0.009408
      6          6           0       -3.836896    0.343780    0.577221
      7          1           0       -3.804236   -2.144308   -2.526554
      8          1           0       -5.438282   -1.555972   -0.711865
      9          1           0       -5.752376   -0.614852   -2.168290
     10          1           0       -4.520985    1.324913   -1.215031
     11          1           0       -5.823233    0.836596   -0.129357
     12          1           0       -3.090705   -2.219524   -0.129358
     13          1           0       -2.146047    0.616376   -0.698076
     14          1           0       -4.205046   -0.375189    1.317047
     15          1           0       -3.657723    1.296394    1.088629
     16          1           0       -3.324420   -0.439914   -2.614039
     17          7           0       -1.371339   -1.923132   -1.236222
     18          6           0       -0.684941   -1.265138   -2.208422
     19          6           0       -0.678645   -2.729901   -0.389481
     20          6           0        0.665721   -1.363090   -2.340754
     21          1           0       -1.272108   -0.630121   -2.859300
     22          6           0        0.673694   -2.866096   -0.448754
     23          1           0       -1.265462   -3.220056    0.379586
     24          6           0        1.424652   -2.095352   -1.378824
     25          1           0        1.154193   -0.811451   -3.132918
     26          1           0        1.156202   -3.477892    0.300206
     27          7           0        2.752090   -2.070238   -1.352859
     28          6           0        3.487960   -2.580390   -0.184844
     29          1           0        3.343547   -3.659278   -0.077818
     30          1           0        3.118723   -2.050774    0.704753
     31          6           0        3.525165   -1.030564   -2.054182
     32          1           0        3.784375   -1.375805   -3.062853
     33          1           0        2.933558   -0.113664   -2.098015
     34          7           0       -1.417829   -0.263506    0.969417
     35         16           0       -1.436283   -1.140802    2.344072
     36          8           0       -2.669362   -1.930788    2.334493
     37          8           0       -0.163071   -1.848951    2.478378
     38          6           0       -0.529990    2.677391   -0.067639
     39          6           0       -0.039835    2.072858   -1.233295
     40          6           0       -0.765405    2.153096   -2.421553
     41          6           0       -1.994307    2.811549   -2.466563
     42          6           0       -2.494335    3.401075   -1.306956
     43          6           0       -1.762375    3.334653   -0.121765
     44          1           0        0.886159    1.501347   -1.165649
     45          1           0       -0.362981    1.699481   -3.325290
     46          1           0       -2.554135    2.871089   -3.395805
     47          1           0       -3.451495    3.914890   -1.325309
     48          1           0       -2.158000    3.799352    0.779255
     49          8           0        0.681252    1.370286    1.656042
     50          1           0       -0.531546    0.255217    0.847527
     51          6           0        2.046085    0.740632    1.176629
     52          8           0        1.894748    0.183067    0.025668
     53          8           0        2.268014   -0.146135    2.253167
     54          1           0        1.572366   -0.823896    2.174147
     55          6           0        3.129686    1.830297    1.299348
     56          1           0        2.900058    2.499452    2.138233
     57          1           0        4.053319    1.306413    1.578005
     58          6           0        0.248761    2.635662    1.243225
     59          1           0       -0.414833    3.023646    2.031376
     60          1           0        1.089309    3.341967    1.183825
     61          6           0       -1.474061    0.064054    3.651868
     62          1           0       -0.587780    0.688741    3.502367
     63          1           0       -2.395974    0.640926    3.564663
     64          1           0       -1.431136   -0.469435    4.602722
     65          6           0        3.379589    2.619026    0.016017
     66          1           0        3.681280    1.920271   -0.772547
     67          1           0        2.454042    3.080283   -0.348544
     68          6           0        4.444577    3.696543    0.205940
     69          1           0        4.644179    4.239558   -0.723098
     70          1           0        4.130554    4.427101    0.959963
     71          1           0        5.387780    3.257557    0.549933
     72          6           0        4.931012   -2.195649   -0.488648
     73          1           0        5.536940   -2.147595    0.418025
     74          1           0        5.383796   -2.921077   -1.173964
     75          6           0        4.756911   -0.836661   -1.167646
     76          1           0        4.505665   -0.088990   -0.410072
     77          1           0        5.632327   -0.509342   -1.732652
 ---------------------------------------------------------------------

 SCF Done:  E(RM062X) =  -1991.35565774     A.U. after   15 cycles

 The electronic state is 1-A.
 Alpha  occ. eigenvalues --  -90.14755 -19.62381 -19.62096 -19.58607 -19.57019
 Alpha  occ. eigenvalues --  -19.50622 -14.85181 -14.80031 -14.76536 -10.63151
 Alpha  occ. eigenvalues --  -10.62607 -10.62209 -10.62124 -10.61083 -10.59879
 Alpha  occ. eigenvalues --  -10.57759 -10.57752 -10.57616 -10.57043 -10.56967
 Alpha  occ. eigenvalues --  -10.56890 -10.56358 -10.55875 -10.55123 -10.55088
 Alpha  occ. eigenvalues --  -10.55042 -10.54884 -10.54688 -10.54684 -10.54646
 Alpha  occ. eigenvalues --  -10.54467 -10.54046 -10.53125 -10.51099 -10.50989
 Alpha  occ. eigenvalues --  -10.49561  -8.45725  -6.37953  -6.37903  -6.37773
 Alpha  occ. eigenvalues --   -1.22542  -1.13457  -1.12847  -1.10747  -1.08869
 Alpha  occ. eigenvalues --   -1.05956  -1.02450  -0.99977  -0.95833  -0.95223
 Alpha  occ. eigenvalues --   -0.93470  -0.90117  -0.88566  -0.86538  -0.85360
 Alpha  occ. eigenvalues --   -0.84935  -0.84853  -0.83701  -0.83313  -0.83065
 Alpha  occ. eigenvalues --   -0.76564  -0.75980  -0.75550  -0.74249  -0.73265
 Alpha  occ. eigenvalues --   -0.71759  -0.68232  -0.68143  -0.67749  -0.67489
 Alpha  occ. eigenvalues --   -0.66434  -0.65490  -0.64877  -0.63336  -0.60515
 Alpha  occ. eigenvalues --   -0.60383  -0.59953  -0.59420  -0.57939  -0.57689
 Alpha  occ. eigenvalues --   -0.57150  -0.56393  -0.55671  -0.55096  -0.54385
 Alpha  occ. eigenvalues --   -0.53559  -0.53079  -0.52676  -0.52473  -0.52175
 Alpha  occ. eigenvalues --   -0.51686  -0.50803  -0.50135  -0.49918  -0.49355
 Alpha  occ. eigenvalues --   -0.49242  -0.48943  -0.48488  -0.48184  -0.48013
 Alpha  occ. eigenvalues --   -0.47725  -0.47634  -0.47164  -0.46166  -0.45807
 Alpha  occ. eigenvalues --   -0.45284  -0.45168  -0.44389  -0.44010  -0.43192
 Alpha  occ. eigenvalues --   -0.42471  -0.42328  -0.41177  -0.40871  -0.40756
 Alpha  occ. eigenvalues --   -0.40674  -0.40397  -0.40122  -0.39836  -0.39407
 Alpha  occ. eigenvalues --   -0.39152  -0.38890  -0.38687  -0.38322  -0.37800
 Alpha  occ. eigenvalues --   -0.37415  -0.36505  -0.36439  -0.36061  -0.35022
 Alpha  occ. eigenvalues --   -0.34542  -0.34285  -0.31774  -0.31354  -0.30024
 Alpha  occ. eigenvalues --   -0.29287  -0.28828  -0.27759  -0.24269  -0.23969
 Alpha virt. eigenvalues --   -0.01225   0.00583   0.03205   0.03558   0.10152
 Alpha virt. eigenvalues --    0.10590   0.11335   0.12565   0.13170   0.13315
 Alpha virt. eigenvalues --    0.14143   0.14433   0.15051   0.15523   0.15546

 Mulliken charges:
               1
     1  C   -0.306454
     2  C   -0.307796
     3  C   -0.311075
     4  C   -0.060279
     5  C    0.064713
     6  C   -0.306867
     7  H    0.175525
     8  H    0.163266
     9  H    0.166781
    10  H    0.151146
    11  H    0.164957
    12  H    0.207168
    13  H    0.174749
    14  H    0.192795
    15  H    0.160755
    16  H    0.156314
    17  N   -0.437417
    18  C    0.079104
    19  C    0.079787
    20  C   -0.209196
    21  H    0.202900
    22  C   -0.220672
    23  H    0.243373
    24  C    0.449462
    25  H    0.192012
    26  H    0.209714
    27  N   -0.518337
    28  C   -0.165607
    29  H    0.166945
    30  H    0.221435
    31  C   -0.145573
    32  H    0.160321
    33  H    0.205461
    34  N   -0.809982
    35  S    1.238370
    36  O   -0.603315
    37  O   -0.591385
    38  C    0.049976
    39  C   -0.196412
    40  C   -0.192520
    41  C   -0.172339
    42  C   -0.165382
    43  C   -0.205067
    44  H    0.233917
    45  H    0.141732
    46  H    0.156247
    47  H    0.159838
    48  H    0.154218
    49  O   -0.597329
    50  H    0.449699
    51  C    0.715793
    52  O   -0.690952
    53  O   -0.703199
    54  H    0.432252
    55  C   -0.340375
    56  H    0.143578
    57  H    0.150789
    58  C   -0.080947
    59  H    0.131273
    60  H    0.156411
    61  C   -0.666201
    62  H    0.268103
    63  H    0.200298
    64  H    0.222841
    65  C   -0.285199
    66  H    0.142564
    67  H    0.140298
    68  C   -0.474843
    69  H    0.148177
    70  H    0.149293
    71  H    0.148445
    72  C   -0.334008
    73  H    0.184440
    74  H    0.159922
    75  C   -0.338293
    76  H    0.204965
    77  H    0.164900
 Sum of Mulliken charges =  -0.00000

 Dipole moment (field-independent basis, Debye):
    X=             -3.5922    Y=             -1.5631    Z=             -5.7086  Tot=              6.9235
 Quadrupole moment (field-independent basis, Debye-Ang):
   XX=           -208.6374   YY=           -222.3937   ZZ=           -218.3068
   XY=            -13.3837   XZ=             -4.1014   YZ=             10.7784

 Normal termination of Gaussian 16 at Thu Feb  7 10:08:36 2019.
