 Gaussian 16, Revision A.03,
 Gaussian 16:  ES64L-G16RevA.03 25-Dec-2016

 ------------------------------------------
 #p M062X/6-31G* em=gd3 force int=ultrafine
 ------------------------------------------

 -----
 Title
 -----
 Symbolic Z-matrix:
 Charge =  0 Multiplicity = 1

                         Standard orientation:
 ---------------------------------------------------------------------
 Center     Atomic      Atomic             Coordinates (Angstroms)
 Number     Number       Type             X           Y           Z
 ---------------------------------------------------------------------
      1          6           0       -4.783454    0.290691   -0.698637
      2          6           0       -4.905105   -1.029382   -1.465678
      3          6           0       -3.543453   -1.464364   -2.020796
      4          6           0       -2.564924   -1.606480   -0.860659
      5          6           0       -2.398115   -0.260264   -0.108194
      6          6           0       -3.757870    0.194652    0.435150
      7          1           0       -3.618924   -2.408210   -2.571483
      8          1           0       -5.288591   -1.811100   -0.796943
      9          1           0       -5.622092   -0.930575   -2.286755
     10          1           0       -4.475564    1.082200   -1.394366
     11          1           0       -5.758495    0.580248   -0.293301
     12          1           0       -2.945631   -2.352786   -0.156411
     13          1           0       -2.075477    0.481454   -0.850404
     14          1           0       -4.106444   -0.513752    1.193765
     15          1           0       -3.624976    1.170503    0.913702
     16          1           0       -3.196089   -0.692754   -2.721059
     17          7           0       -1.215782   -2.067844   -1.248069
     18          6           0       -0.530191   -1.433103   -2.234762
     19          6           0       -0.516863   -2.788826   -0.330157
     20          6           0        0.828101   -1.463696   -2.310689
     21          1           0       -1.125546   -0.873396   -2.945361
     22          6           0        0.842091   -2.840109   -0.321939
     23          1           0       -1.109374   -3.266288    0.442677
     24          6           0        1.579784   -2.070862   -1.260915
     25          1           0        1.317428   -0.939705   -3.120240
     26          1           0        1.328422   -3.368302    0.485987
     27          7           0        2.898223   -1.932966   -1.169371
     28          6           0        3.622605   -2.275550    0.064837
     29          1           0        3.523323   -3.341858    0.285997
     30          1           0        3.204014   -1.675018    0.886544
     31          6           0        3.620151   -0.922891   -1.952155
     32          1           0        3.870117   -1.323588   -2.942250
     33          1           0        2.985082   -0.039440   -2.064125
     34          7           0       -1.312449   -0.291297    0.858939
     35         16           0       -1.400774   -1.090917    2.274911
     36          8           0       -2.582916   -1.958499    2.251941
     37          8           0       -0.104958   -1.722620    2.541343
     38          6           0       -0.658546    2.707747    0.023064
     39          6           0       -0.187116    2.246375   -1.215799
     40          6           0       -0.989834    2.313947   -2.352336
     41          6           0       -2.282718    2.834098   -2.283508
     42          6           0       -2.766313    3.285834   -1.059480
     43          6           0       -1.955810    3.224029    0.074649
     44          1           0        0.791968    1.783933   -1.261700
     45          1           0       -0.597099    1.963971   -3.304747
     46          1           0       -2.902974    2.891217   -3.173808
     47          1           0       -3.770466    3.692847   -0.986018
     48          1           0       -2.340379    3.593001    1.023159
     49          8           0        0.666606    1.612361    1.891064
     50          1           0       -0.315876   -0.049943    0.557641
     51          6           0        1.782228    0.861474    1.247088
     52          8           0        1.353890    0.243760    0.163717
     53          8           0        2.176481   -0.009882    2.292356
     54          1           0        1.459409   -0.667207    2.362848
     55          6           0        3.003098    1.807705    1.087163
     56          1           0        2.987629    2.540820    1.903380
     57          1           0        3.884040    1.180139    1.273544
     58          6           0        0.205858    2.788972    1.284369
     59          1           0       -0.402759    3.288174    2.049276
     60          1           0        1.047138    3.466460    1.077889
     61          6           0       -1.623348    0.166314    3.511969
     62          1           0       -0.764241    0.836232    3.418073
     63          1           0       -2.560973    0.684930    3.304593
     64          1           0       -1.655889   -0.324952    4.485760
     65          6           0        3.181726    2.505077   -0.258317
     66          1           0        3.097287    1.759180   -1.056421
     67          1           0        2.379355    3.227328   -0.446062
     68          6           0        4.527349    3.222948   -0.351665
     69          1           0        4.656591    3.718515   -1.319040
     70          1           0        4.617919    3.983715    0.430990
     71          1           0        5.358594    2.520674   -0.218943
     72          6           0        5.057569   -1.874820   -0.261384
     73          1           0        5.642906   -1.689772    0.641209
     74          1           0        5.549057   -2.664719   -0.839698
     75          6           0        4.866507   -0.618172   -1.114990
     76          1           0        4.654285    0.232972   -0.463494
     77          1           0        5.732495   -0.374753   -1.734213
 ---------------------------------------------------------------------

 SCF Done:  E(RM062X) =  -1991.35896631     A.U. after   14 cycles

 The electronic state is 1-A.
 Alpha  occ. eigenvalues --  -90.14038 -19.61655 -19.61646 -19.58805 -19.56749
 Alpha  occ. eigenvalues --  -19.51397 -14.85112 -14.80458 -14.75431 -10.63368
 Alpha  occ. eigenvalues --  -10.62739 -10.62333 -10.62039 -10.60640 -10.59191
 Alpha  occ. eigenvalues --  -10.58756 -10.57890 -10.57869 -10.57037 -10.56854
 Alpha  occ. eigenvalues --  -10.56651 -10.55594 -10.55582 -10.55212 -10.55080
 Alpha  occ. eigenvalues --  -10.54724 -10.54703 -10.54605 -10.54452 -10.54296
 Alpha  occ. eigenvalues --  -10.54218 -10.54162 -10.53092 -10.51692 -10.51587
 Alpha  occ. eigenvalues --  -10.49812  -8.45017  -6.37232  -6.37212  -6.37055
 Alpha  occ. eigenvalues --   -1.21872  -1.13668  -1.13447  -1.10118  -1.09359
 Alpha  occ. eigenvalues --   -1.05901  -1.01566  -0.99423  -0.95665  -0.94909
 Alpha  occ. eigenvalues --   -0.93449  -0.90215  -0.88755  -0.85931  -0.85806
 Alpha  occ. eigenvalues --   -0.84766  -0.84627  -0.84348  -0.82986  -0.82589
 Alpha  occ. eigenvalues --   -0.76632  -0.76379  -0.75827  -0.74389  -0.72690
 Alpha  occ. eigenvalues --   -0.71546  -0.68349  -0.68295  -0.67893  -0.67134
 Alpha  occ. eigenvalues --   -0.66749  -0.65174  -0.64861  -0.63518  -0.60570
 Alpha  occ. eigenvalues --   -0.60404  -0.59792  -0.58805  -0.57851  -0.57533
 Alpha  occ. eigenvalues --   -0.57115  -0.56414  -0.55676  -0.55157  -0.54165
 Alpha  occ. eigenvalues --   -0.53428  -0.52619  -0.52381  -0.52337  -0.51847
 Alpha  occ. eigenvalues --   -0.51511  -0.51097  -0.50951  -0.49835  -0.49586
 Alpha  occ. eigenvalues --   -0.49159  -0.48798  -0.48211  -0.48106  -0.48058
 Alpha  occ. eigenvalues --   -0.47609  -0.47417  -0.46887  -0.46471  -0.46084
 Alpha  occ. eigenvalues --   -0.44936  -0.44642  -0.44061  -0.43875  -0.43242
 Alpha  occ. eigenvalues --   -0.42424  -0.42070  -0.41589  -0.41445  -0.41209
 Alpha  occ. eigenvalues --   -0.40873  -0.40431  -0.40020  -0.39861  -0.39539
 Alpha  occ. eigenvalues --   -0.39233  -0.39036  -0.38419  -0.37863  -0.37577
 Alpha  occ. eigenvalues --   -0.37340  -0.36730  -0.36560  -0.35669  -0.34868
 Alpha  occ. eigenvalues --   -0.34329  -0.33866  -0.31772  -0.30942  -0.29683
 Alpha  occ. eigenvalues --   -0.28879  -0.28521  -0.27542  -0.24997  -0.24530
 Alpha virt. eigenvalues --   -0.01375   0.00522   0.03654   0.03872   0.10238
 Alpha virt. eigenvalues --    0.11071   0.11535   0.12070   0.13219   0.13537
 Alpha virt. eigenvalues --    0.14231   0.14681   0.14838   0.15394   0.15605

 Mulliken charges:
               1
     1  C   -0.306044
     2  C   -0.306852
     3  C   -0.310468
     4  C   -0.058824
     5  C    0.056726
     6  C   -0.311649
     7  H    0.173723
     8  H    0.162906
     9  H    0.165010
    10  H    0.150336
    11  H    0.162841
    12  H    0.208315
    13  H    0.172284
    14  H    0.193872
    15  H    0.163254
    16  H    0.153570
    17  N   -0.433123
    18  C    0.070663
    19  C    0.065165
    20  C   -0.206072
    21  H    0.207119
    22  C   -0.209492
    23  H    0.245860
    24  C    0.452424
    25  H    0.190633
    26  H    0.211773
    27  N   -0.530243
    28  C   -0.177339
    29  H    0.169963
    30  H    0.238699
    31  C   -0.154127
    32  H    0.168741
    33  H    0.200148
    34  N   -0.817372
    35  S    1.254126
    36  O   -0.611399
    37  O   -0.609899
    38  C    0.092574
    39  C   -0.176683
    40  C   -0.188637
    41  C   -0.170326
    42  C   -0.163578
    43  C   -0.212071
    44  H    0.201740
    45  H    0.141557
    46  H    0.154367
    47  H    0.158020
    48  H    0.151814
    49  O   -0.547747
    50  H    0.449850
    51  C    0.728587
    52  O   -0.724484
    53  O   -0.718286
    54  H    0.445931
    55  C   -0.337207
    56  H    0.150564
    57  H    0.147426
    58  C   -0.095488
    59  H    0.141429
    60  H    0.146561
    61  C   -0.662573
    62  H    0.270066
    63  H    0.196339
    64  H    0.217322
    65  C   -0.295855
    66  H    0.142020
    67  H    0.147091
    68  C   -0.476470
    69  H    0.149586
    70  H    0.156445
    71  H    0.144121
    72  C   -0.331902
    73  H    0.187501
    74  H    0.163895
    75  C   -0.344631
    76  H    0.193745
    77  H    0.172142
 Sum of Mulliken charges =  -0.00000

 Dipole moment (field-independent basis, Debye):
    X=             -1.9805    Y=             -1.9974    Z=             -6.4931  Tot=              7.0762
 Quadrupole moment (field-independent basis, Debye-Ang):
   XX=           -204.4698   YY=           -223.0963   ZZ=           -220.0349
   XY=            -12.0975   XZ=             -5.0847   YZ=             10.3107

 Normal termination of Gaussian 16 at Thu Feb  7 17:38:31 2019.
