 Gaussian 16, Revision A.03,
 Gaussian 16:  ES64L-G16RevA.03 25-Dec-2016

 ------------------------------------------
 #p M062X/6-31G* em=gd3 force int=ultrafine
 ------------------------------------------

 -----
 Title
 -----
 Symbolic Z-matrix:
 Charge =  0 Multiplicity = 1

                         Standard orientation:
 ---------------------------------------------------------------------
 Center     Atomic      Atomic             Coordinates (Angstroms)
 Number     Number       Type             X           Y           Z
 ---------------------------------------------------------------------
      1          6           0       -4.850329    0.368302   -0.496957
      2          6           0       -4.981370   -0.903243   -1.340919
      3          6           0       -3.626377   -1.308992   -1.934347
      4          6           0       -2.636900   -1.525112   -0.796264
      5          6           0       -2.462331   -0.238865    0.053643
      6          6           0       -3.820348    0.193009    0.622197
      7          1           0       -3.712694   -2.213905   -2.545983
      8          1           0       -5.360021   -1.721302   -0.714335
      9          1           0       -5.704920   -0.756298   -2.149175
     10          1           0       -4.533177    1.196303   -1.146838
     11          1           0       -5.824107    0.644313   -0.078739
     12          1           0       -2.994721   -2.324738   -0.140010
     13          1           0       -2.162041    0.543967   -0.660494
     14          1           0       -4.162927   -0.551033    1.350968
     15          1           0       -3.670196    1.140659    1.154090
     16          1           0       -3.283700   -0.492792   -2.585323
     17          7           0       -1.285311   -1.945760   -1.240763
     18          6           0       -0.629682   -1.258752   -2.206082
     19          6           0       -0.565631   -2.731489   -0.404209
     20          6           0        0.725973   -1.322073   -2.356339
     21          1           0       -1.238748   -0.627119   -2.839695
     22          6           0        0.793331   -2.843387   -0.489665
     23          1           0       -1.129083   -3.236126    0.373107
     24          6           0        1.510063   -2.058612   -1.424827
     25          1           0        1.189659   -0.748565   -3.148385
     26          1           0        1.296289   -3.446490    0.253168
     27          7           0        2.849343   -1.996838   -1.412657
     28          6           0        3.604525   -2.503914   -0.258323
     29          1           0        3.508757   -3.589915   -0.176904
     30          1           0        3.213504   -2.038635    0.657463
     31          6           0        3.584434   -0.920380   -2.098647
     32          1           0        3.855209   -1.236067   -3.113078
     33          1           0        2.965906   -0.020372   -2.145076
     34          7           0       -1.355593   -0.343592    0.968276
     35         16           0       -1.384332   -1.229722    2.280217
     36          8           0       -2.510337   -2.185663    2.314652
     37          8           0       -0.032595   -1.817039    2.475927
     38          6           0       -0.769101    2.780433   -0.070094
     39          6           0       -0.180844    2.136915   -1.166900
     40          6           0       -0.821910    2.153996   -2.403928
     41          6           0       -2.064956    2.771715   -2.552216
     42          6           0       -2.661003    3.389473   -1.455654
     43          6           0       -2.007997    3.395228   -0.226599
     44          1           0        0.751909    1.591038   -1.033694
     45          1           0       -0.353628    1.674559   -3.261411
     46          1           0       -2.568191    2.770674   -3.514219
     47          1           0       -3.633664    3.862118   -1.549236
     48          1           0       -2.466303    3.866775    0.639207
     49          8           0        0.287038    1.490791    1.675113
     50          1           0       -0.349812    0.791228    1.267840
     51          6           0        2.407165    0.565665    1.169548
     52          8           0        2.092773    0.156397    0.067489
     53          8           0        2.266139   -0.146988    2.285162
     54          1           0        1.532035   -0.804058    2.176678
     55          6           0        3.133143    1.873382    1.392493
     56          1           0        2.612698    2.416750    2.188927
     57          1           0        4.124053    1.620650    1.792040
     58          6           0       -0.120307    2.761678    1.295330
     59          1           0       -0.820681    3.190644    2.029424
     60          1           0        0.773401    3.403149    1.297603
     61          6           0       -1.550159   -0.086937    3.652212
     62          1           0       -0.736711    0.633580    3.537174
     63          1           0       -2.518138    0.412852    3.582074
     64          1           0       -1.457800   -0.634448    4.590921
     65          6           0        3.277933    2.725101    0.132340
     66          1           0        3.663724    2.102209   -0.682950
     67          1           0        2.295464    3.075698   -0.205468
     68          6           0        4.202191    3.919639    0.359880
     69          1           0        4.348190    4.495567   -0.558571
     70          1           0        3.795929    4.597334    1.118350
     71          1           0        5.186304    3.587263    0.707652
     72          6           0        5.032377   -2.049222   -0.543219
     73          1           0        5.630895   -1.986457    0.367789
     74          1           0        5.519372   -2.747277   -1.231801
     75          6           0        4.816798   -0.692897   -1.217502
     76          1           0        4.571989    0.056421   -0.459594
     77          1           0        5.679941   -0.343210   -1.787406
 ---------------------------------------------------------------------

 SCF Done:  E(RM062X) =  -1991.37683454     A.U. after   15 cycles

 The electronic state is 1-A.
 Alpha  occ. eigenvalues --  -90.10285 -19.63640 -19.60124 -19.58346 -19.58263
 Alpha  occ. eigenvalues --  -19.58022 -14.84806 -14.80398 -14.69281 -10.65981
 Alpha  occ. eigenvalues --  -10.63219 -10.62455 -10.61703 -10.59285 -10.59029
 Alpha  occ. eigenvalues --  -10.58837 -10.57830 -10.57103 -10.56777 -10.56751
 Alpha  occ. eigenvalues --  -10.55901 -10.55668 -10.55642 -10.55115 -10.55043
 Alpha  occ. eigenvalues --  -10.54946 -10.54631 -10.54575 -10.54480 -10.53979
 Alpha  occ. eigenvalues --  -10.53714 -10.53651 -10.53627 -10.53219 -10.53014
 Alpha  occ. eigenvalues --  -10.52638  -8.41230  -6.33466  -6.33378  -6.33301
 Alpha  occ. eigenvalues --   -1.19271  -1.17725  -1.12938  -1.10091  -1.09699
 Alpha  occ. eigenvalues --   -1.09035  -1.06040  -0.97716  -0.95388  -0.94771
 Alpha  occ. eigenvalues --   -0.92249  -0.89824  -0.88583  -0.88472  -0.85064
 Alpha  occ. eigenvalues --   -0.84778  -0.83776  -0.83585  -0.83305  -0.79988
 Alpha  occ. eigenvalues --   -0.79515  -0.76310  -0.75606  -0.74511  -0.70994
 Alpha  occ. eigenvalues --   -0.70388  -0.69452  -0.68646  -0.68353  -0.68124
 Alpha  occ. eigenvalues --   -0.66022  -0.64802  -0.63923  -0.63545  -0.61658
 Alpha  occ. eigenvalues --   -0.60316  -0.59419  -0.59127  -0.58355  -0.56221
 Alpha  occ. eigenvalues --   -0.55884  -0.55329  -0.55215  -0.54681  -0.53932
 Alpha  occ. eigenvalues --   -0.53508  -0.53061  -0.52652  -0.51815  -0.51614
 Alpha  occ. eigenvalues --   -0.51088  -0.50946  -0.50651  -0.49964  -0.49883
 Alpha  occ. eigenvalues --   -0.49795  -0.49519  -0.48758  -0.48317  -0.48061
 Alpha  occ. eigenvalues --   -0.47539  -0.47283  -0.47103  -0.46995  -0.45796
 Alpha  occ. eigenvalues --   -0.45477  -0.45156  -0.44038  -0.43813  -0.43511
 Alpha  occ. eigenvalues --   -0.43231  -0.42842  -0.42122  -0.41838  -0.41755
 Alpha  occ. eigenvalues --   -0.41273  -0.40922  -0.40506  -0.39895  -0.39726
 Alpha  occ. eigenvalues --   -0.39464  -0.39403  -0.39223  -0.38425  -0.38126
 Alpha  occ. eigenvalues --   -0.37485  -0.36329  -0.35828  -0.35375  -0.35063
 Alpha  occ. eigenvalues --   -0.34159  -0.32928  -0.31915  -0.31727  -0.30842
 Alpha  occ. eigenvalues --   -0.30008  -0.28577  -0.28331  -0.27218  -0.25425
 Alpha virt. eigenvalues --   -0.01096   0.00696   0.03095   0.03676   0.08910
 Alpha virt. eigenvalues --    0.10131   0.10954   0.11750   0.12975   0.13447
 Alpha virt. eigenvalues --    0.13736   0.14335   0.15053   0.15400   0.15863

 Mulliken charges:
               1
     1  C   -0.303718
     2  C   -0.304893
     3  C   -0.309406
     4  C   -0.068865
     5  C    0.072036
     6  C   -0.305066
     7  H    0.167347
     8  H    0.161979
     9  H    0.159515
    10  H    0.144329
    11  H    0.157592
    12  H    0.207480
    13  H    0.140759
    14  H    0.184612
    15  H    0.149827
    16  H    0.149783
    17  N   -0.424947
    18  C    0.096439
    19  C    0.098277
    20  C   -0.226530
    21  H    0.204360
    22  C   -0.228552
    23  H    0.255902
    24  C    0.425866
    25  H    0.187448
    26  H    0.207964
    27  N   -0.525003
    28  C   -0.159362
    29  H    0.177827
    30  H    0.197976
    31  C   -0.145023
    32  H    0.169357
    33  H    0.193637
    34  N   -0.784218
    35  S    1.243467
    36  O   -0.632107
    37  O   -0.664682
    38  C    0.052775
    39  C   -0.178629
    40  C   -0.188737
    41  C   -0.169960
    42  C   -0.160385
    43  C   -0.199530
    44  H    0.204146
    45  H    0.140081
    46  H    0.157334
    47  H    0.162553
    48  H    0.159227
    49  O   -0.718612
    50  H    0.488536
    51  C    0.675703
    52  O   -0.522155
    53  O   -0.646691
    54  H    0.479240
    55  C   -0.376590
    56  H    0.198899
    57  H    0.169216
    58  C   -0.061223
    59  H    0.123628
    60  H    0.137289
    61  C   -0.668234
    62  H    0.237065
    63  H    0.183911
    64  H    0.205051
    65  C   -0.292796
    66  H    0.148333
    67  H    0.163359
    68  C   -0.480667
    69  H    0.160461
    70  H    0.159237
    71  H    0.152504
    72  C   -0.334963
    73  H    0.183876
    74  H    0.169196
    75  C   -0.335146
    76  H    0.178844
    77  H    0.172448
 Sum of Mulliken charges =  -0.00000

 Dipole moment (field-independent basis, Debye):
    X=              1.7999    Y=              0.3447    Z=             -6.7827  Tot=              7.0259
 Quadrupole moment (field-independent basis, Debye-Ang):
   XX=           -201.0656   YY=           -222.8020   ZZ=           -222.8852
   XY=            -11.6336   XZ=              1.7251   YZ=             13.4889

 Normal termination of Gaussian 16 at Thu Feb  7 20:47:03 2019.
