 Gaussian 16, Revision A.03,
 Gaussian 16:  ES64L-G16RevA.03 25-Dec-2016

 ------------------------------------------
 #p M062X/6-31G* em=gd3 force int=ultrafine
 ------------------------------------------

 -----
 Title
 -----
 Symbolic Z-matrix:
 Charge =  0 Multiplicity = 1

                         Standard orientation:
 ---------------------------------------------------------------------
 Center     Atomic      Atomic             Coordinates (Angstroms)
 Number     Number       Type             X           Y           Z
 ---------------------------------------------------------------------
      1          6           0       -4.867532    0.051958   -0.421396
      2          6           0       -4.897933   -1.229511   -1.259920
      3          6           0       -3.515068   -1.527297   -1.851855
      4          6           0       -2.509699   -1.649692   -0.711544
      5          6           0       -2.421556   -0.328773    0.104394
      6          6           0       -3.810776   -0.023130    0.684772
      7          1           0       -3.529109   -2.445125   -2.450827
      8          1           0       -5.209891   -2.073771   -0.631101
      9          1           0       -5.632238   -1.143805   -2.067613
     10          1           0       -4.632411    0.901487   -1.077976
     11          1           0       -5.856978    0.242371    0.007961
     12          1           0       -2.818370   -2.455475   -0.040361
     13          1           0       -2.212827    0.455780   -0.637976
     14          1           0       -4.075043   -0.798026    1.415620
     15          1           0       -3.747548    0.933737    1.217139
     16          1           0       -3.241388   -0.695194   -2.515279
     17          7           0       -1.141877   -2.005076   -1.155301
     18          6           0       -0.533712   -1.312293   -2.145237
     19          6           0       -0.383788   -2.760997   -0.326497
     20          6           0        0.819621   -1.335247   -2.324593
     21          1           0       -1.179855   -0.714656   -2.775251
     22          6           0        0.975285   -2.830112   -0.440250
     23          1           0       -0.916690   -3.265968    0.471999
     24          6           0        1.644229   -2.035021   -1.400975
     25          1           0        1.248227   -0.764841   -3.138067
     26          1           0        1.515080   -3.409892    0.295284
     27          7           0        2.980262   -1.935157   -1.421348
     28          6           0        3.783285   -2.440468   -0.301161
     29          1           0        3.730656   -3.531943   -0.247751
     30          1           0        3.395903   -2.017080    0.636226
     31          6           0        3.669239   -0.849176   -2.134589
     32          1           0        3.925548   -1.168227   -3.152374
     33          1           0        3.023967    0.032227   -2.175939
     34          7           0       -1.298526   -0.283806    1.018675
     35         16           0       -1.258717   -1.233105    2.279811
     36          8           0       -2.243903   -2.337218    2.240090
     37          8           0        0.142112   -1.676001    2.520810
     38          6           0       -1.166112    2.851372   -0.174682
     39          6           0       -0.419315    2.195080   -1.158501
     40          6           0       -0.927984    2.070515   -2.449745
     41          6           0       -2.194457    2.561925   -2.766406
     42          6           0       -2.949541    3.195559   -1.781334
     43          6           0       -2.432136    3.341086   -0.496323
     44          1           0        0.535083    1.744390   -0.892071
     45          1           0       -0.332367    1.579079   -3.215854
     46          1           0       -2.591065    2.454308   -3.771695
     47          1           0       -3.941513    3.573961   -2.010674
     48          1           0       -3.023682    3.830459    0.274648
     49          8           0        0.204625    1.943155    1.612390
     50          1           0       -0.277530    1.104003    1.356311
     51          6           0        2.435313    0.661233    1.242417
     52          8           0        2.135277    0.217253    0.147034
     53          8           0        2.184238    0.040289    2.382356
     54          1           0        1.498991   -0.673586    2.257915
     55          6           0        3.190524    1.954607    1.440485
     56          1           0        2.723098    2.472717    2.282555
     57          1           0        4.216216    1.705635    1.749123
     58          6           0       -0.617664    3.007034    1.229172
     59          1           0       -1.460732    3.147547    1.926187
     60          1           0       -0.007203    3.919160    1.283855
     61          6           0       -1.649088   -0.221574    3.704720
     62          1           0       -0.955400    0.622425    3.697285
     63          1           0       -2.679506    0.124885    3.604640
     64          1           0       -1.527132   -0.820602    4.608230
     65          6           0        3.192112    2.825332    0.191015
     66          1           0        3.614580    2.261023   -0.649357
     67          1           0        2.152432    3.041448   -0.078659
     68          6           0        3.962753    4.126369    0.392694
     69          1           0        3.959901    4.735553   -0.515842
     70          1           0        3.518806    4.722106    1.197115
     71          1           0        5.006329    3.930807    0.662910
     72          6           0        5.187542   -1.927969   -0.608938
     73          1           0        5.795415   -1.839695    0.293696
     74          1           0        5.694301   -2.608605   -1.300840
     75          6           0        4.913293   -0.581469   -1.283135
     76          1           0        4.661688    0.166327   -0.525383
     77          1           0        5.752902   -0.212851   -1.875952
 ---------------------------------------------------------------------

 SCF Done:  E(RM062X) =  -1991.38980270     A.U. after   15 cycles

 The electronic state is 1-A.
 Alpha  occ. eigenvalues --  -90.10377 -19.63381 -19.60097 -19.59293 -19.58597
 Alpha  occ. eigenvalues --  -19.58361 -14.84811 -14.80520 -14.69412 -10.65454
 Alpha  occ. eigenvalues --  -10.63239 -10.62394 -10.61517 -10.59151 -10.59103
 Alpha  occ. eigenvalues --  -10.59030 -10.57820 -10.57418 -10.56840 -10.56649
 Alpha  occ. eigenvalues --  -10.56065 -10.55766 -10.55500 -10.54967 -10.54917
 Alpha  occ. eigenvalues --  -10.54860 -10.54580 -10.54540 -10.54492 -10.53754
 Alpha  occ. eigenvalues --  -10.53753 -10.53557 -10.53139 -10.52997 -10.52630
 Alpha  occ. eigenvalues --  -10.52547  -8.41342  -6.33579  -6.33487  -6.33407
 Alpha  occ. eigenvalues --   -1.19127  -1.17898  -1.12944  -1.10329  -1.09852
 Alpha  occ. eigenvalues --   -1.09159  -1.06165  -0.97550  -0.95251  -0.94817
 Alpha  occ. eigenvalues --   -0.92189  -0.89857  -0.88592  -0.88026  -0.85015
 Alpha  occ. eigenvalues --   -0.84959  -0.83648  -0.83504  -0.83301  -0.80205
 Alpha  occ. eigenvalues --   -0.79113  -0.76361  -0.75664  -0.74679  -0.70944
 Alpha  occ. eigenvalues --   -0.70192  -0.69062  -0.68731  -0.68365  -0.67995
 Alpha  occ. eigenvalues --   -0.65770  -0.64724  -0.63951  -0.63428  -0.61638
 Alpha  occ. eigenvalues --   -0.60275  -0.59400  -0.58966  -0.58363  -0.56172
 Alpha  occ. eigenvalues --   -0.55459  -0.55159  -0.55062  -0.54054  -0.53672
 Alpha  occ. eigenvalues --   -0.53437  -0.53079  -0.52368  -0.51970  -0.51726
 Alpha  occ. eigenvalues --   -0.51154  -0.51003  -0.50611  -0.50201  -0.49829
 Alpha  occ. eigenvalues --   -0.49613  -0.49462  -0.48841  -0.48359  -0.48005
 Alpha  occ. eigenvalues --   -0.47773  -0.47171  -0.46976  -0.46921  -0.45943
 Alpha  occ. eigenvalues --   -0.45852  -0.45248  -0.43959  -0.43652  -0.43422
 Alpha  occ. eigenvalues --   -0.42757  -0.42448  -0.42260  -0.41914  -0.41896
 Alpha  occ. eigenvalues --   -0.41157  -0.40838  -0.40582  -0.39917  -0.39521
 Alpha  occ. eigenvalues --   -0.39369  -0.39191  -0.38738  -0.38376  -0.37824
 Alpha  occ. eigenvalues --   -0.37346  -0.36249  -0.35898  -0.35364  -0.35112
 Alpha  occ. eigenvalues --   -0.34405  -0.33133  -0.32098  -0.31710  -0.31503
 Alpha  occ. eigenvalues --   -0.29840  -0.28887  -0.28321  -0.27507  -0.25428
 Alpha virt. eigenvalues --   -0.01022   0.00646   0.03321   0.03805   0.09091
 Alpha virt. eigenvalues --    0.10135   0.10930   0.11775   0.13004   0.13448
 Alpha virt. eigenvalues --    0.13838   0.14222   0.15163   0.15512   0.15745

 Mulliken charges:
               1
     1  C   -0.303951
     2  C   -0.304197
     3  C   -0.309757
     4  C   -0.073401
     5  C    0.062118
     6  C   -0.305259
     7  H    0.165851
     8  H    0.160908
     9  H    0.159161
    10  H    0.146538
    11  H    0.156643
    12  H    0.213070
    13  H    0.141474
    14  H    0.179693
    15  H    0.148982
    16  H    0.151043
    17  N   -0.424554
    18  C    0.100364
    19  C    0.084162
    20  C   -0.227966
    21  H    0.205363
    22  C   -0.227241
    23  H    0.264286
    24  C    0.428505
    25  H    0.188254
    26  H    0.206825
    27  N   -0.529241
    28  C   -0.157169
    29  H    0.178422
    30  H    0.199108
    31  C   -0.147267
    32  H    0.169532
    33  H    0.196241
    34  N   -0.754925
    35  S    1.249309
    36  O   -0.647133
    37  O   -0.670816
    38  C    0.048723
    39  C   -0.177223
    40  C   -0.186994
    41  C   -0.170036
    42  C   -0.162308
    43  C   -0.197594
    44  H    0.202209
    45  H    0.139484
    46  H    0.156421
    47  H    0.161794
    48  H    0.156453
    49  O   -0.710834
    50  H    0.480678
    51  C    0.644971
    52  O   -0.523536
    53  O   -0.644213
    54  H    0.485587
    55  C   -0.367119
    56  H    0.200041
    57  H    0.163906
    58  C   -0.068451
    59  H    0.128763
    60  H    0.159929
    61  C   -0.655885
    62  H    0.218584
    63  H    0.188180
    64  H    0.208106
    65  C   -0.287002
    66  H    0.143211
    67  H    0.167586
    68  C   -0.480430
    69  H    0.158332
    70  H    0.158641
    71  H    0.149823
    72  C   -0.337416
    73  H    0.184006
    74  H    0.170078
    75  C   -0.335633
    76  H    0.182853
    77  H    0.173343
 Sum of Mulliken charges =  -0.00000

 Dipole moment (field-independent basis, Debye):
    X=              1.5665    Y=             -0.4082    Z=             -6.4993  Tot=              6.6979
 Quadrupole moment (field-independent basis, Debye-Ang):
   XX=           -197.8800   YY=           -223.4695   ZZ=           -221.7019
   XY=            -12.1169   XZ=             -1.3837   YZ=             12.3182

 Normal termination of Gaussian 16 at Fri Feb  8 00:56:37 2019.
