 Gaussian 16, Revision A.03,
 Gaussian 16:  ES64L-G16RevA.03 25-Dec-2016

 ------------------------------------------
 #p M062X/6-31G* em=gd3 force int=ultrafine
 ------------------------------------------

 -----
 Title
 -----
 Symbolic Z-matrix:
 Charge =  0 Multiplicity = 1

                         Standard orientation:
 ---------------------------------------------------------------------
 Center     Atomic      Atomic             Coordinates (Angstroms)
 Number     Number       Type             X           Y           Z
 ---------------------------------------------------------------------
      1          6           0       -4.783554    0.319515   -0.665559
      2          6           0       -4.917228   -0.989575   -1.449276
      3          6           0       -3.561633   -1.424347   -2.019385
      4          6           0       -2.576787   -1.587401   -0.867446
      5          6           0       -2.397109   -0.251846   -0.099130
      6          6           0       -3.750243    0.204036    0.459445
      7          1           0       -3.646015   -2.360296   -2.582111
      8          1           0       -5.300389   -1.778227   -0.788537
      9          1           0       -5.639217   -0.875948   -2.264026
     10          1           0       -4.476736    1.118527   -1.353067
     11          1           0       -5.754224    0.608395   -0.249415
     12          1           0       -2.957600   -2.340456   -0.170507
     13          1           0       -2.075571    0.497212   -0.834302
     14          1           0       -4.097141   -0.511379    1.212327
     15          1           0       -3.608281    1.173468    0.948500
     16          1           0       -3.214301   -0.645321   -2.711433
     17          7           0       -1.232467   -2.051260   -1.268577
     18          6           0       -0.546962   -1.402834   -2.246504
     19          6           0       -0.533792   -2.789702   -0.364558
     20          6           0        0.811103   -1.436311   -2.325892
     21          1           0       -1.142136   -0.828947   -2.945949
     22          6           0        0.825006   -2.846008   -0.360715
     23          1           0       -1.125951   -3.276987    0.402399
     24          6           0        1.563190   -2.063162   -1.287943
     25          1           0        1.300321   -0.900225   -3.127591
     26          1           0        1.311264   -3.389340    0.437113
     27          7           0        2.882005   -1.929752   -1.195416
     28          6           0        3.605182   -2.292054    0.033921
     29          1           0        3.504852   -3.361471    0.239047
     30          1           0        3.186713   -1.702987    0.863924
     31          6           0        3.605230   -0.907000   -1.960614
     32          1           0        3.857316   -1.291871   -2.956414
     33          1           0        2.970368   -0.021884   -2.059007
     34          7           0       -1.305153   -0.301156    0.860136
     35         16           0       -1.387301   -1.118807    2.266280
     36          8           0       -2.572157   -1.982609    2.238270
     37          8           0       -0.091516   -1.756985    2.516511
     38          6           0       -0.649978    2.705565    0.036695
     39          6           0       -0.176734    2.244666   -1.201712
     40          6           0       -0.975124    2.319648   -2.340940
     41          6           0       -2.265090    2.847501   -2.275675
     42          6           0       -2.750160    3.299752   -1.052153
     43          6           0       -1.944311    3.229992    0.084806
     44          1           0        0.799111    1.775868   -1.244366
     45          1           0       -0.581191    1.969059   -3.292387
     46          1           0       -2.881989    2.910079   -3.167945
     47          1           0       -3.752416    3.712993   -0.980738
     48          1           0       -2.330262    3.598896    1.033084
     49          8           0        0.669520    1.596751    1.900758
     50          1           0       -0.310408   -0.056696    0.558919
     51          6           0        1.789014    0.851179    1.256331
     52          8           0        1.365762    0.237417    0.168652
     53          8           0        2.181130   -0.024954    2.298284
     54          1           0        1.472417   -0.690954    2.353882
     55          6           0        3.007494    1.801923    1.105252
     56          1           0        2.987859    2.530801    1.925336
     57          1           0        3.889320    1.176665    1.291135
     58          6           0        0.209082    2.777383    1.302223
     59          1           0       -0.403571    3.268989    2.069003
     60          1           0        1.049891    3.458439    1.104634
     61          6           0       -1.599428    0.122369    3.521239
     62          1           0       -0.740111    0.792592    3.430273
     63          1           0       -2.537841    0.644904    3.327202
     64          1           0       -1.626065   -0.381807    4.488707
     65          6           0        3.187771    2.508086   -0.235530
     66          1           0        3.103534    1.767327   -1.038499
     67          1           0        2.385820    3.231324   -0.419379
     68          6           0        4.532979    3.225752   -0.323515
     69          1           0        4.662597    3.729356   -1.286603
     70          1           0        4.625143    3.979877    0.465383
     71          1           0        5.363207    2.520793   -0.197227
     72          6           0        5.040511   -1.886765   -0.284389
     73          1           0        5.625210   -1.717471    0.621706
     74          1           0        5.532017   -2.666801   -0.875994
     75          6           0        4.849598   -0.615518   -1.115969
     76          1           0        4.634120    0.223081   -0.449452
     77          1           0        5.716396   -0.359500   -1.728944
 ---------------------------------------------------------------------

 SCF Done:  E(RM062X) =  -1991.35893933     A.U. after   14 cycles

 The electronic state is 1-A.
 Alpha  occ. eigenvalues --  -90.14044 -19.61664 -19.61650 -19.58793 -19.56744
 Alpha  occ. eigenvalues --  -19.51404 -14.85121 -14.80460 -14.75456 -10.63379
 Alpha  occ. eigenvalues --  -10.62752 -10.62338 -10.62060 -10.60649 -10.59205
 Alpha  occ. eigenvalues --  -10.58728 -10.57912 -10.57883 -10.57055 -10.56862
 Alpha  occ. eigenvalues --  -10.56653 -10.55600 -10.55574 -10.55199 -10.55049
 Alpha  occ. eigenvalues --  -10.54753 -10.54710 -10.54634 -10.54480 -10.54318
 Alpha  occ. eigenvalues --  -10.54241 -10.54184 -10.53097 -10.51678 -10.51570
 Alpha  occ. eigenvalues --  -10.49799  -8.45024  -6.37239  -6.37218  -6.37061
 Alpha  occ. eigenvalues --   -1.21877  -1.13666  -1.13462  -1.10126  -1.09359
 Alpha  occ. eigenvalues --   -1.05918  -1.01580  -0.99422  -0.95675  -0.94926
 Alpha  occ. eigenvalues --   -0.93454  -0.90230  -0.88756  -0.85934  -0.85807
 Alpha  occ. eigenvalues --   -0.84778  -0.84639  -0.84337  -0.83004  -0.82596
 Alpha  occ. eigenvalues --   -0.76639  -0.76383  -0.75830  -0.74394  -0.72697
 Alpha  occ. eigenvalues --   -0.71557  -0.68345  -0.68294  -0.67906  -0.67143
 Alpha  occ. eigenvalues --   -0.66757  -0.65183  -0.64864  -0.63521  -0.60580
 Alpha  occ. eigenvalues --   -0.60407  -0.59801  -0.58826  -0.57843  -0.57544
 Alpha  occ. eigenvalues --   -0.57122  -0.56419  -0.55689  -0.55156  -0.54166
 Alpha  occ. eigenvalues --   -0.53443  -0.52627  -0.52386  -0.52343  -0.51863
 Alpha  occ. eigenvalues --   -0.51517  -0.51093  -0.50954  -0.49839  -0.49596
 Alpha  occ. eigenvalues --   -0.49162  -0.48800  -0.48208  -0.48110  -0.48063
 Alpha  occ. eigenvalues --   -0.47614  -0.47421  -0.46891  -0.46475  -0.46089
 Alpha  occ. eigenvalues --   -0.44931  -0.44657  -0.44077  -0.43883  -0.43247
 Alpha  occ. eigenvalues --   -0.42434  -0.42074  -0.41572  -0.41438  -0.41201
 Alpha  occ. eigenvalues --   -0.40876  -0.40438  -0.40025  -0.39857  -0.39516
 Alpha  occ. eigenvalues --   -0.39241  -0.39036  -0.38436  -0.37869  -0.37576
 Alpha  occ. eigenvalues --   -0.37346  -0.36725  -0.36568  -0.35671  -0.34869
 Alpha  occ. eigenvalues --   -0.34342  -0.33873  -0.31758  -0.30961  -0.29702
 Alpha  occ. eigenvalues --   -0.28882  -0.28541  -0.27563  -0.25002  -0.24534
 Alpha virt. eigenvalues --   -0.01402   0.00500   0.03631   0.03847   0.10211
 Alpha virt. eigenvalues --    0.11065   0.11562   0.12083   0.13220   0.13547
 Alpha virt. eigenvalues --    0.14213   0.14681   0.14828   0.15366   0.15602

 Mulliken charges:
               1
     1  C   -0.306056
     2  C   -0.306873
     3  C   -0.310317
     4  C   -0.059048
     5  C    0.057011
     6  C   -0.311758
     7  H    0.173711
     8  H    0.162869
     9  H    0.165058
    10  H    0.150465
    11  H    0.162881
    12  H    0.208371
    13  H    0.172404
    14  H    0.193736
    15  H    0.163280
    16  H    0.153647
    17  N   -0.432634
    18  C    0.070263
    19  C    0.064792
    20  C   -0.205558
    21  H    0.207043
    22  C   -0.209295
    23  H    0.245879
    24  C    0.451340
    25  H    0.190752
    26  H    0.211755
    27  N   -0.529537
    28  C   -0.176219
    29  H    0.169975
    30  H    0.237119
    31  C   -0.154035
    32  H    0.168520
    33  H    0.200333
    34  N   -0.817342
    35  S    1.253921
    36  O   -0.611664
    37  O   -0.609566
    38  C    0.091425
    39  C   -0.177403
    40  C   -0.188756
    41  C   -0.170463
    42  C   -0.163639
    43  C   -0.212061
    44  H    0.202675
    45  H    0.141331
    46  H    0.154483
    47  H    0.158151
    48  H    0.152053
    49  O   -0.547740
    50  H    0.449869
    51  C    0.728276
    52  O   -0.724625
    53  O   -0.718161
    54  H    0.445804
    55  C   -0.337500
    56  H    0.150382
    57  H    0.148209
    58  C   -0.094959
    59  H    0.141421
    60  H    0.146585
    61  C   -0.662596
    62  H    0.270562
    63  H    0.196280
    64  H    0.217269
    65  C   -0.295913
    66  H    0.141801
    67  H    0.147067
    68  C   -0.476080
    69  H    0.149571
    70  H    0.156362
    71  H    0.143914
    72  C   -0.331874
    73  H    0.187560
    74  H    0.163776
    75  C   -0.344449
    76  H    0.194173
    77  H    0.171995
 Sum of Mulliken charges =  -0.00000

 Dipole moment (field-independent basis, Debye):
    X=             -2.0509    Y=             -1.9333    Z=             -6.4966  Tot=              7.0816
 Quadrupole moment (field-independent basis, Debye-Ang):
   XX=           -204.6358   YY=           -223.1991   ZZ=           -219.9408
   XY=            -12.0965   XZ=             -5.1874   YZ=             10.2174

 Normal termination of Gaussian 16 at Thu Feb  7 17:15:47 2019.
