 Gaussian 16, Revision A.03,
 Gaussian 16:  ES64L-G16RevA.03 25-Dec-2016

 ------------------------------------------
 #p M062X/6-31G* em=gd3 force int=ultrafine
 ------------------------------------------

 -----
 Title
 -----
 Symbolic Z-matrix:
 Charge =  0 Multiplicity = 1

                         Standard orientation:
 ---------------------------------------------------------------------
 Center     Atomic      Atomic             Coordinates (Angstroms)
 Number     Number       Type             X           Y           Z
 ---------------------------------------------------------------------
      1          6           0       -4.856968    0.533263   -0.536434
      2          6           0       -5.032131   -0.748261   -1.356355
      3          6           0       -3.691974   -1.207698   -1.943208
      4          6           0       -2.702443   -1.440755   -0.805866
      5          6           0       -2.498133   -0.144168    0.014635
      6          6           0       -3.832980    0.343943    0.585903
      7          1           0       -3.807020   -2.121126   -2.536341
      8          1           0       -5.439298   -1.542191   -0.716584
      9          1           0       -5.751079   -0.589826   -2.166178
     10          1           0       -4.514466    1.339875   -1.199073
     11          1           0       -5.818140    0.847297   -0.116998
     12          1           0       -3.093104   -2.216973   -0.139776
     13          1           0       -2.141354    0.620494   -0.687614
     14          1           0       -4.203044   -0.379053    1.320898
     15          1           0       -3.650939    1.292567    1.103823
     16          1           0       -3.322722   -0.417251   -2.610365
     17          7           0       -1.373009   -1.916015   -1.244612
     18          6           0       -0.686671   -1.253787   -2.213787
     19          6           0       -0.680215   -2.727319   -0.402265
     20          6           0        0.663948   -1.351718   -2.347270
     21          1           0       -1.273723   -0.615336   -2.861326
     22          6           0        0.672052   -2.864273   -0.463096
     23          1           0       -1.266889   -3.221137    0.364583
     24          6           0        1.423055   -2.089665   -1.389935
     25          1           0        1.152235   -0.796662   -3.137189
     26          1           0        1.154479   -3.480322    0.282437
     27          7           0        2.750616   -2.065922   -1.365330
     28          6           0        3.487530   -2.583574   -0.201418
     29          1           0        3.341559   -3.662805   -0.100028
     30          1           0        3.120405   -2.058490    0.691691
     31          6           0        3.524274   -1.023802   -2.062527
     32          1           0        3.780873   -1.364124   -3.073540
     33          1           0        2.934566   -0.105411   -2.100418
     34          7           0       -1.414582   -0.275466    0.972183
     35         16           0       -1.437567   -1.160663    2.341408
     36          8           0       -2.669527   -1.952376    2.323543
     37          8           0       -0.163836   -1.868119    2.475001
     38          6           0       -0.530552    2.681312   -0.065668
     39          6           0       -0.035503    2.071138   -1.226144
     40          6           0       -0.751950    2.153394   -2.419749
     41          6           0       -1.977095    2.818103   -2.474481
     42          6           0       -2.482177    3.412702   -1.319607
     43          6           0       -1.758875    3.345209   -0.129171
     44          1           0        0.887085    1.494597   -1.150724
     45          1           0       -0.345735    1.695926   -3.319870
     46          1           0       -2.530096    2.878731   -3.407738
     47          1           0       -3.436562    3.931299   -1.345879
     48          1           0       -2.158258    3.813644    0.768241
     49          8           0        0.669816    1.361852    1.650143
     50          1           0       -0.537563    0.264400    0.871952
     51          6           0        2.051005    0.733724    1.182886
     52          8           0        1.914292    0.179953    0.030317
     53          8           0        2.259034   -0.152183    2.260983
     54          1           0        1.569215   -0.834508    2.170180
     55          6           0        3.124386    1.830181    1.321531
     56          1           0        2.882380    2.493260    2.161664
     57          1           0        4.049511    1.311603    1.605266
     58          6           0        0.239254    2.631471    1.249657
     59          1           0       -0.429457    3.012445    2.037247
     60          1           0        1.079667    3.338973    1.201445
     61          6           0       -1.479171    0.036305    3.656676
     62          1           0       -0.594504    0.664290    3.511133
     63          1           0       -2.402491    0.611448    3.572975
     64          1           0       -1.434637   -0.502375    4.604525
     65          6           0        3.378001    2.626255    0.043491
     66          1           0        3.698855    1.934253   -0.743446
     67          1           0        2.449902    3.074806   -0.330311
     68          6           0        4.424809    3.718575    0.248851
     69          1           0        4.627675    4.266714   -0.676436
     70          1           0        4.090950    4.442565    1.000678
     71          1           0        5.370088    3.292558    0.603264
     72          6           0        4.930726   -2.199531   -0.505533
     73          1           0        5.538359   -2.157408    0.400292
     74          1           0        5.381024   -2.922199   -1.195387
     75          6           0        4.758042   -0.836738   -1.177290
     76          1           0        4.509352   -0.092229   -0.415767
     77          1           0        5.633111   -0.508626   -1.742388
 ---------------------------------------------------------------------

 SCF Done:  E(RM062X) =  -1991.35559468     A.U. after   15 cycles

 The electronic state is 1-A.
 Alpha  occ. eigenvalues --  -90.14730 -19.62372 -19.62069 -19.58563 -19.57093
 Alpha  occ. eigenvalues --  -19.50720 -14.85174 -14.80037 -14.76458 -10.63152
 Alpha  occ. eigenvalues --  -10.62604 -10.62267 -10.62120 -10.61077 -10.59864
 Alpha  occ. eigenvalues --  -10.57764 -10.57752 -10.57633 -10.57031 -10.56965
 Alpha  occ. eigenvalues --  -10.56881 -10.56371 -10.55869 -10.55125 -10.55083
 Alpha  occ. eigenvalues --  -10.55045 -10.54889 -10.54690 -10.54686 -10.54655
 Alpha  occ. eigenvalues --  -10.54458 -10.54045 -10.53126 -10.51104 -10.50996
 Alpha  occ. eigenvalues --  -10.49593  -8.45702  -6.37929  -6.37878  -6.37752
 Alpha  occ. eigenvalues --   -1.22521  -1.13448  -1.12822  -1.10725  -1.08871
 Alpha  occ. eigenvalues --   -1.05980  -1.02417  -1.00116  -0.95825  -0.95221
 Alpha  occ. eigenvalues --   -0.93467  -0.90112  -0.88565  -0.86527  -0.85378
 Alpha  occ. eigenvalues --   -0.84919  -0.84850  -0.83708  -0.83316  -0.83056
 Alpha  occ. eigenvalues --   -0.76561  -0.76003  -0.75548  -0.74215  -0.73252
 Alpha  occ. eigenvalues --   -0.71752  -0.68233  -0.68139  -0.67747  -0.67488
 Alpha  occ. eigenvalues --   -0.66423  -0.65489  -0.64881  -0.63331  -0.60526
 Alpha  occ. eigenvalues --   -0.60381  -0.59953  -0.59407  -0.57946  -0.57687
 Alpha  occ. eigenvalues --   -0.57148  -0.56383  -0.55655  -0.55081  -0.54384
 Alpha  occ. eigenvalues --   -0.53556  -0.53070  -0.52667  -0.52459  -0.52170
 Alpha  occ. eigenvalues --   -0.51680  -0.50811  -0.50128  -0.49922  -0.49362
 Alpha  occ. eigenvalues --   -0.49242  -0.48929  -0.48499  -0.48194  -0.48020
 Alpha  occ. eigenvalues --   -0.47715  -0.47639  -0.47163  -0.46186  -0.45818
 Alpha  occ. eigenvalues --   -0.45316  -0.45174  -0.44392  -0.44042  -0.43188
 Alpha  occ. eigenvalues --   -0.42467  -0.42333  -0.41191  -0.40868  -0.40751
 Alpha  occ. eigenvalues --   -0.40669  -0.40396  -0.40139  -0.39838  -0.39418
 Alpha  occ. eigenvalues --   -0.39131  -0.38901  -0.38705  -0.38312  -0.37778
 Alpha  occ. eigenvalues --   -0.37432  -0.36514  -0.36442  -0.36049  -0.35030
 Alpha  occ. eigenvalues --   -0.34556  -0.34294  -0.31813  -0.31325  -0.30021
 Alpha  occ. eigenvalues --   -0.29286  -0.28820  -0.27770  -0.24352  -0.24024
 Alpha virt. eigenvalues --   -0.01228   0.00585   0.03203   0.03570   0.10159
 Alpha virt. eigenvalues --    0.10590   0.11344   0.12565   0.13168   0.13324
 Alpha virt. eigenvalues --    0.14145   0.14424   0.15061   0.15529   0.15538

 Mulliken charges:
               1
     1  C   -0.306515
     2  C   -0.307794
     3  C   -0.311229
     4  C   -0.060447
     5  C    0.065126
     6  C   -0.306843
     7  H    0.175474
     8  H    0.163263
     9  H    0.166766
    10  H    0.151367
    11  H    0.164917
    12  H    0.207376
    13  H    0.174552
    14  H    0.192501
    15  H    0.160539
    16  H    0.156439
    17  N   -0.437329
    18  C    0.079779
    19  C    0.080534
    20  C   -0.210062
    21  H    0.202815
    22  C   -0.221031
    23  H    0.243598
    24  C    0.449116
    25  H    0.192027
    26  H    0.209701
    27  N   -0.518238
    28  C   -0.164996
    29  H    0.167045
    30  H    0.220803
    31  C   -0.145309
    32  H    0.160346
    33  H    0.205405
    34  N   -0.811405
    35  S    1.237857
    36  O   -0.603573
    37  O   -0.591513
    38  C    0.049443
    39  C   -0.196859
    40  C   -0.192606
    41  C   -0.172455
    42  C   -0.165284
    43  C   -0.205203
    44  H    0.234731
    45  H    0.141503
    46  H    0.156264
    47  H    0.159867
    48  H    0.154322
    49  O   -0.600530
    50  H    0.450665
    51  C    0.715105
    52  O   -0.687663
    53  O   -0.702062
    54  H    0.432466
    55  C   -0.340077
    56  H    0.143891
    57  H    0.150920
    58  C   -0.080004
    59  H    0.130614
    60  H    0.156325
    61  C   -0.666404
    62  H    0.267413
    63  H    0.200333
    64  H    0.223037
    65  C   -0.285121
    66  H    0.142765
    67  H    0.140480
    68  C   -0.475023
    69  H    0.148307
    70  H    0.149162
    71  H    0.148644
    72  C   -0.334089
    73  H    0.184326
    74  H    0.159985
    75  C   -0.338352
    76  H    0.205337
    77  H    0.164763
 Sum of Mulliken charges =  -0.00000

 Dipole moment (field-independent basis, Debye):
    X=             -3.5686    Y=             -1.5161    Z=             -5.7097  Tot=              6.9017
 Quadrupole moment (field-independent basis, Debye-Ang):
   XX=           -208.5580   YY=           -222.5532   ZZ=           -218.2112
   XY=            -13.4481   XZ=             -4.1607   YZ=             10.7855

 Normal termination of Gaussian 16 at Thu Feb  7 09:47:59 2019.
