 Gaussian 16, Revision A.03,
 Gaussian 16:  ES64L-G16RevA.03 25-Dec-2016

 ------------------------------------------
 #p M062X/6-31G* em=gd3 force int=ultrafine
 ------------------------------------------

 -----
 Title
 -----
 Symbolic Z-matrix:
 Charge =  0 Multiplicity = 1

                         Standard orientation:
 ---------------------------------------------------------------------
 Center     Atomic      Atomic             Coordinates (Angstroms)
 Number     Number       Type             X           Y           Z
 ---------------------------------------------------------------------
      1          6           0       -4.861888    0.025607   -0.409513
      2          6           0       -4.879534   -1.244520   -1.265487
      3          6           0       -3.493880   -1.519787   -1.861693
      4          6           0       -2.488634   -1.652101   -0.722460
      5          6           0       -2.412099   -0.342802    0.111868
      6          6           0       -3.803706   -0.053713    0.694901
      7          1           0       -3.498996   -2.427347   -2.476147
      8          1           0       -5.182368   -2.100534   -0.648190
      9          1           0       -5.615113   -1.155156   -2.071590
     10          1           0       -4.636516    0.886508   -1.054548
     11          1           0       -5.852802    0.199498    0.023501
     12          1           0       -2.790720   -2.470836   -0.064258
     13          1           0       -2.207861    0.451994   -0.620460
     14          1           0       -4.061918   -0.838401    1.417373
     15          1           0       -3.747792    0.897699    1.238135
     16          1           0       -3.227249   -0.673890   -2.510462
     17          7           0       -1.117268   -1.987652   -1.170419
     18          6           0       -0.514708   -1.271140   -2.146710
     19          6           0       -0.353641   -2.753330   -0.355796
     20          6           0        0.838358   -1.283150   -2.328553
     21          1           0       -1.164718   -0.662963   -2.762546
     22          6           0        1.005519   -2.813819   -0.473848
     23          1           0       -0.882386   -3.274645    0.434931
     24          6           0        1.668213   -1.999490   -1.422844
     25          1           0        1.262709   -0.693804   -3.130665
     26          1           0        1.550284   -3.404179    0.249523
     27          7           0        3.003811   -1.897493   -1.449748
     28          6           0        3.817486   -2.432542   -0.351802
     29          1           0        3.762202   -3.524936   -0.325119
     30          1           0        3.441913   -2.031398    0.600045
     31          6           0        3.687568   -0.795707   -2.143342
     32          1           0        3.935322   -1.091001   -3.170449
     33          1           0        3.042725    0.086795   -2.158529
     34          7           0       -1.290868   -0.301996    1.029389
     35         16           0       -1.251150   -1.270248    2.275986
     36          8           0       -2.229988   -2.378783    2.215865
     37          8           0        0.150830   -1.710297    2.515755
     38          6           0       -1.237073    2.831191   -0.176220
     39          6           0       -0.443883    2.211270   -1.146184
     40          6           0       -0.907456    2.098557   -2.455696
     41          6           0       -2.172503    2.568954   -2.805973
     42          6           0       -2.972132    3.171298   -1.835958
     43          6           0       -2.501355    3.303107   -0.532090
     44          1           0        0.511056    1.777233   -0.855642
     45          1           0       -0.276899    1.632577   -3.209631
     46          1           0       -2.533229    2.470945   -3.825697
     47          1           0       -3.962861    3.535101   -2.092785
     48          1           0       -3.129313    3.765660    0.226683
     49          8           0        0.167804    1.965214    1.607443
     50          1           0       -0.268138    1.097260    1.365422
     51          6           0        2.429597    0.669099    1.283006
     52          8           0        2.161351    0.220198    0.180987
     53          8           0        2.143553    0.055402    2.417646
     54          1           0        1.479659   -0.676127    2.276942
     55          6           0        3.181266    1.961789    1.497838
     56          1           0        2.724095    2.463526    2.355100
     57          1           0        4.211572    1.708688    1.787690
     58          6           0       -0.743966    2.963728    1.251363
     59          1           0       -1.618174    2.979784    1.925972
     60          1           0       -0.230149    3.926330    1.373423
     61          6           0       -1.653084   -0.283911    3.715361
     62          1           0       -0.964242    0.564180    3.726227
     63          1           0       -2.684952    0.058705    3.616474
     64          1           0       -1.532238   -0.897041    4.609519
     65          6           0        3.166858    2.855738    0.265089
     66          1           0        3.579857    2.307210   -0.590240
     67          1           0        2.123104    3.075312    0.014929
     68          6           0        3.938775    4.153269    0.483823
     69          1           0        3.917434    4.784770   -0.408889
     70          1           0        3.508803    4.727664    1.310973
     71          1           0        4.987558    3.953871    0.729623
     72          6           0        5.219228   -1.915453   -0.663289
     73          1           0        5.839901   -1.854700    0.232852
     74          1           0        5.714240   -2.577571   -1.381334
     75          6           0        4.938663   -0.550155   -1.295803
     76          1           0        4.691789    0.175282   -0.514775
     77          1           0        5.772743   -0.163916   -1.885197
 ---------------------------------------------------------------------

 SCF Done:  E(RM062X) =  -1991.39071606     A.U. after   15 cycles

 The electronic state is 1-A.
 Alpha  occ. eigenvalues --  -90.10413 -19.63411 -19.60125 -19.59354 -19.58645
 Alpha  occ. eigenvalues --  -19.58392 -14.84821 -14.80543 -14.69459 -10.65450
 Alpha  occ. eigenvalues --  -10.63248 -10.62376 -10.61540 -10.59169 -10.59152
 Alpha  occ. eigenvalues --  -10.59019 -10.57811 -10.57426 -10.56865 -10.56655
 Alpha  occ. eigenvalues --  -10.56099 -10.55786 -10.55480 -10.54963 -10.54918
 Alpha  occ. eigenvalues --  -10.54854 -10.54565 -10.54533 -10.54481 -10.53818
 Alpha  occ. eigenvalues --  -10.53725 -10.53561 -10.53110 -10.52893 -10.52659
 Alpha  occ. eigenvalues --  -10.52473  -8.41380  -6.33617  -6.33524  -6.33444
 Alpha  occ. eigenvalues --   -1.19150  -1.17944  -1.12955  -1.10361  -1.09859
 Alpha  occ. eigenvalues --   -1.09192  -1.06213  -0.97574  -0.95245  -0.94843
 Alpha  occ. eigenvalues --   -0.92200  -0.89863  -0.88610  -0.87969  -0.85023
 Alpha  occ. eigenvalues --   -0.84969  -0.83653  -0.83511  -0.83305  -0.80235
 Alpha  occ. eigenvalues --   -0.79071  -0.76376  -0.75676  -0.74658  -0.70955
 Alpha  occ. eigenvalues --   -0.70203  -0.69029  -0.68754  -0.68373  -0.67979
 Alpha  occ. eigenvalues --   -0.65710  -0.64728  -0.63968  -0.63443  -0.61673
 Alpha  occ. eigenvalues --   -0.60289  -0.59416  -0.58935  -0.58380  -0.56178
 Alpha  occ. eigenvalues --   -0.55493  -0.55159  -0.55069  -0.53992  -0.53659
 Alpha  occ. eigenvalues --   -0.53434  -0.53087  -0.52311  -0.51988  -0.51735
 Alpha  occ. eigenvalues --   -0.51184  -0.51023  -0.50614  -0.50289  -0.49835
 Alpha  occ. eigenvalues --   -0.49637  -0.49409  -0.48861  -0.48380  -0.48023
 Alpha  occ. eigenvalues --   -0.47760  -0.47173  -0.46960  -0.46852  -0.45960
 Alpha  occ. eigenvalues --   -0.45895  -0.45261  -0.43977  -0.43653  -0.43426
 Alpha  occ. eigenvalues --   -0.42760  -0.42430  -0.42292  -0.41926  -0.41844
 Alpha  occ. eigenvalues --   -0.41166  -0.40810  -0.40615  -0.39933  -0.39518
 Alpha  occ. eigenvalues --   -0.39382  -0.39167  -0.38685  -0.38377  -0.37768
 Alpha  occ. eigenvalues --   -0.37404  -0.36305  -0.35953  -0.35397  -0.35106
 Alpha  occ. eigenvalues --   -0.34433  -0.33175  -0.32142  -0.31666  -0.31519
 Alpha  occ. eigenvalues --   -0.29823  -0.28874  -0.28330  -0.27591  -0.25473
 Alpha virt. eigenvalues --   -0.01023   0.00643   0.03352   0.03835   0.09085
 Alpha virt. eigenvalues --    0.10100   0.10974   0.11701   0.13007   0.13372
 Alpha virt. eigenvalues --    0.13767   0.14166   0.15269   0.15573   0.15729

 Mulliken charges:
               1
     1  C   -0.304033
     2  C   -0.304223
     3  C   -0.309854
     4  C   -0.073638
     5  C    0.061741
     6  C   -0.305557
     7  H    0.165759
     8  H    0.160895
     9  H    0.159247
    10  H    0.146927
    11  H    0.156631
    12  H    0.213321
    13  H    0.141295
    14  H    0.180306
    15  H    0.148175
    16  H    0.151711
    17  N   -0.424755
    18  C    0.100739
    19  C    0.084781
    20  C   -0.228219
    21  H    0.206099
    22  C   -0.227260
    23  H    0.263864
    24  C    0.428863
    25  H    0.188327
    26  H    0.206622
    27  N   -0.529980
    28  C   -0.156151
    29  H    0.178437
    30  H    0.198719
    31  C   -0.147494
    32  H    0.169446
    33  H    0.196834
    34  N   -0.754717
    35  S    1.248695
    36  O   -0.646945
    37  O   -0.671348
    38  C    0.048710
    39  C   -0.176849
    40  C   -0.187048
    41  C   -0.170309
    42  C   -0.162803
    43  C   -0.196836
    44  H    0.199784
    45  H    0.140121
    46  H    0.156524
    47  H    0.161715
    48  H    0.155869
    49  O   -0.708399
    50  H    0.479119
    51  C    0.640412
    52  O   -0.524180
    53  O   -0.642490
    54  H    0.485495
    55  C   -0.366278
    56  H    0.199124
    57  H    0.163907
    58  C   -0.070374
    59  H    0.129214
    60  H    0.163344
    61  C   -0.654825
    62  H    0.217640
    63  H    0.188294
    64  H    0.208409
    65  C   -0.286775
    66  H    0.142657
    67  H    0.170147
    68  C   -0.480624
    69  H    0.158154
    70  H    0.158920
    71  H    0.149128
    72  C   -0.337548
    73  H    0.183718
    74  H    0.170119
    75  C   -0.335569
    76  H    0.183671
    77  H    0.173455
 Sum of Mulliken charges =  -0.00000

 Dipole moment (field-independent basis, Debye):
    X=              1.5983    Y=             -0.4225    Z=             -6.4683  Tot=              6.6763
 Quadrupole moment (field-independent basis, Debye-Ang):
   XX=           -197.4207   YY=           -224.1936   ZZ=           -221.3057
   XY=            -12.3083   XZ=             -1.7456   YZ=             12.1317

 Normal termination of Gaussian 16 at Fri Feb  8 01:55:44 2019.
