 Gaussian 16, Revision A.03,
 Gaussian 16:  ES64L-G16RevA.03 25-Dec-2016

 ------------------------------------------
 #p M062X/6-31G* em=gd3 force int=ultrafine
 ------------------------------------------

 -----
 Title
 -----
 Symbolic Z-matrix:
 Charge =  0 Multiplicity = 1

                         Standard orientation:
 ---------------------------------------------------------------------
 Center     Atomic      Atomic             Coordinates (Angstroms)
 Number     Number       Type             X           Y           Z
 ---------------------------------------------------------------------
      1          6           0       -4.781337    0.410774   -0.548708
      2          6           0       -4.964531   -0.874815   -1.360915
      3          6           0       -3.634999   -1.324495   -1.979419
      4          6           0       -2.623869   -1.537222   -0.858946
      5          6           0       -2.394282   -0.225249   -0.064339
      6          6           0       -3.719795    0.246611    0.543688
      7          1           0       -3.755975   -2.244577   -2.561151
      8          1           0       -5.346852   -1.671791   -0.709670
      9          1           0       -5.706019   -0.724952   -2.151915
     10          1           0       -4.476197    1.220224   -1.224624
     11          1           0       -5.733769    0.709261   -0.098659
     12          1           0       -3.002411   -2.299086   -0.170620
     13          1           0       -2.077755    0.534878   -0.790029
     14          1           0       -4.060563   -0.478214    1.290664
     15          1           0       -3.541916    1.201561    1.049568
     16          1           0       -3.288525   -0.537045   -2.662403
     17          7           0       -1.299464   -2.017530   -1.305147
     18          6           0       -0.614903   -1.335223   -2.261310
     19          6           0       -0.601401   -2.805129   -0.443602
     20          6           0        0.741711   -1.380667   -2.355212
     21          1           0       -1.209593   -0.720844   -2.926112
     22          6           0        0.756470   -2.882919   -0.459825
     23          1           0       -1.191382   -3.313465    0.311408
     24          6           0        1.496117   -2.065807   -1.355977
     25          1           0        1.230681   -0.812651   -3.134905
     26          1           0        1.243167   -3.469430    0.306406
     27          7           0        2.816394   -1.949481   -1.267494
     28          6           0        3.542721   -2.380727   -0.062845
     29          1           0        3.435001   -3.458298    0.088290
     30          1           0        3.134307   -1.829365    0.797043
     31          6           0        3.540739   -0.884863   -1.974384
     32          1           0        3.791293   -1.212885   -2.990668
     33          1           0        2.906357    0.004723   -2.015239
     34          7           0       -1.277453   -0.321880    0.862171
     35         16           0       -1.333351   -1.174465    2.249842
     36          8           0       -2.528627   -2.023798    2.224286
     37          8           0       -0.038141   -1.830302    2.449720
     38          6           0       -0.616701    2.693751    0.051357
     39          6           0       -0.142835    2.219847   -1.182176
     40          6           0       -0.928934    2.313367   -2.328970
     41          6           0       -2.205671    2.873517   -2.277481
     42          6           0       -2.689917    3.341866   -1.059405
     43          6           0       -1.897471    3.252583    0.085427
     44          1           0        0.821126    1.724877   -1.213055
     45          1           0       -0.534428    1.951844   -3.276375
     46          1           0       -2.812148    2.950059   -3.175764
     47          1           0       -3.681228    3.782519   -0.998389
     48          1           0       -2.283411    3.633095    1.029124
     49          8           0        0.693351    1.551261    1.902313
     50          1           0       -0.293075   -0.070840    0.552984
     51          6           0        1.832243    0.827048    1.259554
     52          8           0        1.428318    0.220394    0.161787
     53          8           0        2.221756   -0.057355    2.294597
     54          1           0        1.527807   -0.741235    2.319301
     55          6           0        3.033428    1.801646    1.136234
     56          1           0        2.990268    2.517753    1.966858
     57          1           0        3.927928    1.193609    1.321005
     58          6           0        0.226117    2.741010    1.329508
     59          1           0       -0.402773    3.204556    2.100770
     60          1           0        1.059849    3.438894    1.161023
     61          6           0       -1.503844    0.032425    3.543807
     62          1           0       -0.640721    0.697647    3.452220
     63          1           0       -2.441430    0.568659    3.387161
     64          1           0       -1.513339   -0.500119    4.496239
     65          6           0        3.208445    2.533715   -0.191073
     66          1           0        3.190417    1.801475   -1.007397
     67          1           0        2.370617    3.210054   -0.389241
     68          6           0        4.512872    3.327650   -0.229962
     69          1           0        4.643867    3.848899   -1.183297
     70          1           0        4.535670    4.078003    0.568751
     71          1           0        5.376631    2.670891   -0.081612
     72          6           0        4.978251   -1.966333   -0.365926
     73          1           0        5.570693   -1.857281    0.544279
     74          1           0        5.459637   -2.711060   -1.009228
     75          6           0        4.785554   -0.645192   -1.114614
     76          1           0        4.565887    0.147327   -0.394894
     77          1           0        5.651253   -0.348623   -1.710541
 ---------------------------------------------------------------------

 SCF Done:  E(RM062X) =  -1991.35871309     A.U. after   14 cycles

 The electronic state is 1-A.
 Alpha  occ. eigenvalues --  -90.14133 -19.61745 -19.61723 -19.58719 -19.56717
 Alpha  occ. eigenvalues --  -19.51321 -14.85155 -14.80451 -14.75655 -10.63412
 Alpha  occ. eigenvalues --  -10.62783 -10.62286 -10.62158 -10.60703 -10.59303
 Alpha  occ. eigenvalues --  -10.58528 -10.57984 -10.57924 -10.57135 -10.56889
 Alpha  occ. eigenvalues --  -10.56677 -10.55642 -10.55589 -10.55127 -10.54886
 Alpha  occ. eigenvalues --  -10.54824 -10.54764 -10.54707 -10.54557 -10.54385
 Alpha  occ. eigenvalues --  -10.54308 -10.54289 -10.53088 -10.51563 -10.51496
 Alpha  occ. eigenvalues --  -10.49733  -8.45111  -6.37327  -6.37305  -6.37148
 Alpha  occ. eigenvalues --   -1.21959  -1.13605  -1.13502  -1.10214  -1.09348
 Alpha  occ. eigenvalues --   -1.05893  -1.01686  -0.99357  -0.95724  -0.94980
 Alpha  occ. eigenvalues --   -0.93479  -0.90285  -0.88751  -0.85886  -0.85814
 Alpha  occ. eigenvalues --   -0.84816  -0.84690  -0.84259  -0.83049  -0.82667
 Alpha  occ. eigenvalues --   -0.76658  -0.76316  -0.75833  -0.74384  -0.72762
 Alpha  occ. eigenvalues --   -0.71621  -0.68327  -0.68247  -0.67937  -0.67185
 Alpha  occ. eigenvalues --   -0.66758  -0.65220  -0.64870  -0.63522  -0.60569
 Alpha  occ. eigenvalues --   -0.60402  -0.59790  -0.58959  -0.57809  -0.57581
 Alpha  occ. eigenvalues --   -0.57161  -0.56432  -0.55762  -0.55165  -0.54183
 Alpha  occ. eigenvalues --   -0.53520  -0.52647  -0.52432  -0.52404  -0.51900
 Alpha  occ. eigenvalues --   -0.51543  -0.51043  -0.50832  -0.49864  -0.49579
 Alpha  occ. eigenvalues --   -0.49158  -0.48822  -0.48203  -0.48126  -0.48043
 Alpha  occ. eigenvalues --   -0.47654  -0.47451  -0.46903  -0.46452  -0.46100
 Alpha  occ. eigenvalues --   -0.44891  -0.44721  -0.44129  -0.43880  -0.43256
 Alpha  occ. eigenvalues --   -0.42489  -0.42113  -0.41440  -0.41366  -0.41142
 Alpha  occ. eigenvalues --   -0.40892  -0.40467  -0.40003  -0.39834  -0.39366
 Alpha  occ. eigenvalues --   -0.39261  -0.39058  -0.38452  -0.37927  -0.37586
 Alpha  occ. eigenvalues --   -0.37380  -0.36732  -0.36572  -0.35712  -0.34893
 Alpha  occ. eigenvalues --   -0.34377  -0.33935  -0.31687  -0.31057  -0.29761
 Alpha  occ. eigenvalues --   -0.28885  -0.28595  -0.27626  -0.24916  -0.24463
 Alpha virt. eigenvalues --   -0.01500   0.00423   0.03568   0.03773   0.10150
 Alpha virt. eigenvalues --    0.11022   0.11647   0.12161   0.13194   0.13534
 Alpha virt. eigenvalues --    0.14201   0.14639   0.14768   0.15253   0.15600

 Mulliken charges:
               1
     1  C   -0.306211
     2  C   -0.307037
     3  C   -0.309528
     4  C   -0.059853
     5  C    0.057051
     6  C   -0.311760
     7  H    0.173852
     8  H    0.162769
     9  H    0.165369
    10  H    0.151042
    11  H    0.163155
    12  H    0.208778
    13  H    0.172816
    14  H    0.193027
    15  H    0.163572
    16  H    0.154074
    17  N   -0.430817
    18  C    0.067964
    19  C    0.063618
    20  C   -0.202710
    21  H    0.206672
    22  C   -0.208924
    23  H    0.245579
    24  C    0.446847
    25  H    0.191654
    26  H    0.211625
    27  N   -0.526807
    28  C   -0.172220
    29  H    0.169789
    30  H    0.231654
    31  C   -0.154481
    32  H    0.166645
    33  H    0.203758
    34  N   -0.816536
    35  S    1.253828
    36  O   -0.612302
    37  O   -0.607596
    38  C    0.086659
    39  C   -0.182156
    40  C   -0.189426
    41  C   -0.170879
    42  C   -0.163685
    43  C   -0.212185
    44  H    0.208450
    45  H    0.140751
    46  H    0.154841
    47  H    0.158559
    48  H    0.152486
    49  O   -0.549452
    50  H    0.449170
    51  C    0.726077
    52  O   -0.723170
    53  O   -0.718116
    54  H    0.445335
    55  C   -0.338404
    56  H    0.149419
    57  H    0.150551
    58  C   -0.092537
    59  H    0.140567
    60  H    0.147389
    61  C   -0.663107
    62  H    0.272563
    63  H    0.196264
    64  H    0.217461
    65  C   -0.294197
    66  H    0.138162
    67  H    0.146757
    68  C   -0.474119
    69  H    0.149164
    70  H    0.155039
    71  H    0.144488
    72  C   -0.331815
    73  H    0.187416
    74  H    0.163167
    75  C   -0.343538
    76  H    0.196404
    77  H    0.171294
 Sum of Mulliken charges =  -0.00000

 Dipole moment (field-independent basis, Debye):
    X=             -2.4211    Y=             -1.8589    Z=             -6.4054  Tot=              7.0955
 Quadrupole moment (field-independent basis, Debye-Ang):
   XX=           -205.4287   YY=           -223.0922   ZZ=           -219.7724
   XY=            -12.2299   XZ=             -5.3853   YZ=             10.0035

 Normal termination of Gaussian 16 at Thu Feb  7 15:37:13 2019.
