 Gaussian 16, Revision A.03,
 Gaussian 16:  ES64L-G16RevA.03 25-Dec-2016

 ------------------------------------------
 #p M062X/6-31G* em=gd3 force int=ultrafine
 ------------------------------------------

 -----
 Title
 -----
 Symbolic Z-matrix:
 Charge =  0 Multiplicity = 1

                         Standard orientation:
 ---------------------------------------------------------------------
 Center     Atomic      Atomic             Coordinates (Angstroms)
 Number     Number       Type             X           Y           Z
 ---------------------------------------------------------------------
      1          6           0       -4.782057    0.373745   -0.596442
      2          6           0       -4.943120   -0.917228   -1.404756
      3          6           0       -3.601734   -1.356650   -2.004557
      4          6           0       -2.602483   -1.555049   -0.870823
      5          6           0       -2.394484   -0.237038   -0.079886
      6          6           0       -3.732316    0.224513    0.509331
      7          1           0       -3.706483   -2.280000   -2.584324
      8          1           0       -5.325886   -1.714862   -0.754628
      9          1           0       -5.676004   -0.778045   -2.205672
     10          1           0       -4.476796    1.183092   -1.272383
     11          1           0       -5.742671    0.664907   -0.159125
     12          1           0       -2.982780   -2.316789   -0.183213
     13          1           0       -2.075944    0.522315   -0.805596
     14          1           0       -4.075432   -0.500581    1.254871
     15          1           0       -3.570224    1.183066    1.013559
     16          1           0       -3.254575   -0.568279   -2.686088
     17          7           0       -1.269242   -2.026720   -1.299280
     18          6           0       -0.584080   -1.355096   -2.262113
     19          6           0       -0.570976   -2.796684   -0.421852
     20          6           0        0.773300   -1.394664   -2.349096
     21          1           0       -1.178927   -0.755887   -2.940371
     22          6           0        0.787395   -2.864363   -0.428437
     23          1           0       -1.162158   -3.299584    0.335801
     24          6           0        1.526479   -2.057718   -1.334382
     25          1           0        1.262416   -0.837455   -3.136397
     26          1           0        1.273755   -3.435268    0.349743
     27          7           0        2.845940   -1.932865   -1.241787
     28          6           0        3.569147   -2.335061   -0.025030
     29          1           0        3.466394   -3.409895    0.147618
     30          1           0        3.153457   -1.769214    0.822069
     31          6           0        3.569607   -0.883903   -1.971228
     32          1           0        3.823230   -1.234742   -2.979096
     33          1           0        2.933894    0.003351   -2.037450
     34          7           0       -1.288294   -0.318252    0.860617
     35         16           0       -1.355858   -1.162803    2.251985
     36          8           0       -2.545594   -2.019772    2.220371
     37          8           0       -0.059605   -1.810821    2.471499
     38          6           0       -0.633009    2.700604    0.055608
     39          6           0       -0.158721    2.237212   -1.181503
     40          6           0       -0.950098    2.325910   -2.324848
     41          6           0       -2.233192    2.870760   -2.265627
     42          6           0       -2.718520    3.327353   -1.043661
     43          6           0       -1.920262    3.243181    0.097568
     44          1           0        0.810742    1.754709   -1.218932
     45          1           0       -0.555408    1.972827   -3.275164
     46          1           0       -2.844268    2.943810   -3.161102
     47          1           0       -3.715298    3.754873   -0.976574
     48          1           0       -2.306764    3.614870    1.044641
     49          8           0        0.680167    1.567019    1.909083
     50          1           0       -0.298741   -0.068121    0.556370
     51          6           0        1.809773    0.834889    1.264382
     52          8           0        1.397652    0.227333    0.169537
     53          8           0        2.200149   -0.048433    2.300272
     54          1           0        1.501339   -0.726234    2.334768
     55          6           0        3.019686    1.798240    1.130138
     56          1           0        2.988857    2.518207    1.957872
     57          1           0        3.907607    1.180132    1.313361
     58          6           0        0.217091    2.754868    1.328179
     59          1           0       -0.403885    3.229713    2.098865
     60          1           0        1.054790    3.444708    1.148172
     61          6           0       -1.546393    0.052363    3.535444
     62          1           0       -0.686395    0.722095    3.447058
     63          1           0       -2.485631    0.581737    3.365736
     64          1           0       -1.561638   -0.472702    4.491958
     65          6           0        3.197275    2.520656   -0.202287
     66          1           0        3.131053    1.787439   -1.014419
     67          1           0        2.384532    3.233073   -0.384311
     68          6           0        4.533177    3.259285   -0.272530
     69          1           0        4.660649    3.775754   -1.229226
     70          1           0        4.608657    4.005699    0.526369
     71          1           0        5.372903    2.564730   -0.148753
     72          6           0        5.004539   -1.921356   -0.330800
     73          1           0        5.590924   -1.785838    0.579814
     74          1           0        5.493550   -2.680177   -0.951362
     75          6           0        4.812153   -0.620737   -1.114949
     76          1           0        4.591726    0.191156   -0.417636
     77          1           0        5.679111   -0.339674   -1.716588
 ---------------------------------------------------------------------

 SCF Done:  E(RM062X) =  -1991.35886128     A.U. after   14 cycles

 The electronic state is 1-A.
 Alpha  occ. eigenvalues --  -90.14085 -19.61703 -19.61683 -19.58758 -19.56727
 Alpha  occ. eigenvalues --  -19.51370 -14.85138 -14.80455 -14.75548 -10.63398
 Alpha  occ. eigenvalues --  -10.62771 -10.62313 -10.62110 -10.60676 -10.59252
 Alpha  occ. eigenvalues --  -10.58627 -10.57955 -10.57898 -10.57096 -10.56877
 Alpha  occ. eigenvalues --  -10.56664 -10.55622 -10.55578 -10.55156 -10.54959
 Alpha  occ. eigenvalues --  -10.54798 -10.54736 -10.54680 -10.54529 -10.54358
 Alpha  occ. eigenvalues --  -10.54281 -10.54240 -10.53100 -10.51646 -10.51549
 Alpha  occ. eigenvalues --  -10.49771  -8.45064  -6.37279  -6.37258  -6.37101
 Alpha  occ. eigenvalues --   -1.21915  -1.13646  -1.13490  -1.10167  -1.09352
 Alpha  occ. eigenvalues --   -1.05916  -1.01630  -0.99395  -0.95699  -0.94963
 Alpha  occ. eigenvalues --   -0.93466  -0.90260  -0.88751  -0.85889  -0.85818
 Alpha  occ. eigenvalues --   -0.84805  -0.84666  -0.84295  -0.83035  -0.82631
 Alpha  occ. eigenvalues --   -0.76648  -0.76347  -0.75832  -0.74399  -0.72729
 Alpha  occ. eigenvalues --   -0.71589  -0.68331  -0.68273  -0.67927  -0.67163
 Alpha  occ. eigenvalues --   -0.66760  -0.65205  -0.64866  -0.63520  -0.60580
 Alpha  occ. eigenvalues --   -0.60405  -0.59798  -0.58889  -0.57821  -0.57565
 Alpha  occ. eigenvalues --   -0.57142  -0.56426  -0.55728  -0.55161  -0.54173
 Alpha  occ. eigenvalues --   -0.53483  -0.52638  -0.52406  -0.52371  -0.51892
 Alpha  occ. eigenvalues --   -0.51532  -0.51068  -0.50913  -0.49849  -0.49595
 Alpha  occ. eigenvalues --   -0.49157  -0.48809  -0.48201  -0.48108  -0.48070
 Alpha  occ. eigenvalues --   -0.47632  -0.47436  -0.46897  -0.46467  -0.46095
 Alpha  occ. eigenvalues --   -0.44911  -0.44690  -0.44106  -0.43887  -0.43251
 Alpha  occ. eigenvalues --   -0.42461  -0.42089  -0.41504  -0.41407  -0.41170
 Alpha  occ. eigenvalues --   -0.40880  -0.40453  -0.40010  -0.39844  -0.39438
 Alpha  occ. eigenvalues --   -0.39253  -0.39047  -0.38456  -0.37896  -0.37580
 Alpha  occ. eigenvalues --   -0.37366  -0.36727  -0.36571  -0.35689  -0.34879
 Alpha  occ. eigenvalues --   -0.34360  -0.33902  -0.31719  -0.31009  -0.29738
 Alpha  occ. eigenvalues --   -0.28887  -0.28579  -0.27599  -0.24970  -0.24506
 Alpha virt. eigenvalues --   -0.01459   0.00457   0.03593   0.03802   0.10172
 Alpha virt. eigenvalues --    0.11047   0.11620   0.12122   0.13211   0.13551
 Alpha virt. eigenvalues --    0.14198   0.14669   0.14792   0.15301   0.15599

 Mulliken charges:
               1
     1  C   -0.306124
     2  C   -0.306942
     3  C   -0.309937
     4  C   -0.059463
     5  C    0.057234
     6  C   -0.311879
     7  H    0.173760
     8  H    0.162791
     9  H    0.165214
    10  H    0.150819
    11  H    0.163002
    12  H    0.208541
    13  H    0.172616
    14  H    0.193304
    15  H    0.163447
    16  H    0.153866
    17  N   -0.431581
    18  C    0.069028
    19  C    0.063993
    20  C   -0.204088
    21  H    0.206869
    22  C   -0.208965
    23  H    0.245803
    24  C    0.448697
    25  H    0.191192
    26  H    0.211724
    27  N   -0.527883
    28  C   -0.173984
    29  H    0.169862
    30  H    0.234143
    31  C   -0.154139
    32  H    0.167628
    33  H    0.201724
    34  N   -0.817061
    35  S    1.253912
    36  O   -0.612115
    37  O   -0.608708
    38  C    0.088960
    39  C   -0.179656
    40  C   -0.189111
    41  C   -0.170667
    42  C   -0.163661
    43  C   -0.212166
    44  H    0.205358
    45  H    0.141010
    46  H    0.154699
    47  H    0.158417
    48  H    0.152367
    49  O   -0.548316
    50  H    0.449583
    51  C    0.727221
    52  O   -0.724174
    53  O   -0.718115
    54  H    0.445670
    55  C   -0.337986
    56  H    0.149934
    57  H    0.149567
    58  C   -0.093785
    59  H    0.141122
    60  H    0.146957
    61  C   -0.662838
    62  H    0.271573
    63  H    0.196268
    64  H    0.217356
    65  C   -0.295324
    66  H    0.140652
    67  H    0.146771
    68  C   -0.475007
    69  H    0.149331
    70  H    0.155833
    71  H    0.143810
    72  C   -0.331797
    73  H    0.187554
    74  H    0.163435
    75  C   -0.343924
    76  H    0.195202
    77  H    0.171578
 Sum of Mulliken charges =  -0.00000

 Dipole moment (field-independent basis, Debye):
    X=             -2.2510    Y=             -1.8498    Z=             -6.4603  Tot=              7.0869
 Quadrupole moment (field-independent basis, Debye-Ang):
   XX=           -205.0810   YY=           -223.2648   ZZ=           -219.7675
   XY=            -12.1257   XZ=             -5.3458   YZ=             10.0657

 Normal termination of Gaussian 16 at Thu Feb  7 16:26:28 2019.
