 Gaussian 16, Revision A.03,
 Gaussian 16:  ES64L-G16RevA.03 25-Dec-2016

 ------------------------------------------
 #p M062X/6-31G* em=gd3 force int=ultrafine
 ------------------------------------------

 -----
 Title
 -----
 Symbolic Z-matrix:
 Charge =  0 Multiplicity = 1

                         Standard orientation:
 ---------------------------------------------------------------------
 Center     Atomic      Atomic             Coordinates (Angstroms)
 Number     Number       Type             X           Y           Z
 ---------------------------------------------------------------------
      1          6           0       -4.800067    0.460349   -0.517407
      2          6           0       -5.006554   -0.845462   -1.290903
      3          6           0       -3.689277   -1.326495   -1.911613
      4          6           0       -2.665551   -1.518677   -0.798663
      5          6           0       -2.417150   -0.191007   -0.038295
      6          6           0       -3.730649    0.312557    0.569843
      7          1           0       -3.826139   -2.261471   -2.465297
      8          1           0       -5.389778   -1.619416   -0.612951
      9          1           0       -5.755561   -0.710211   -2.077431
     10          1           0       -4.491166    1.246651   -1.218805
     11          1           0       -5.744554    0.783344   -0.067607
     12          1           0       -3.039588   -2.262084   -0.087977
     13          1           0       -2.098497    0.548395   -0.784137
     14          1           0       -4.073084   -0.387432    1.339143
     15          1           0       -3.535945    1.278311    1.048540
     16          1           0       -3.343192   -0.562810   -2.621167
     17          7           0       -1.350219   -2.017139   -1.252109
     18          6           0       -0.669223   -1.348951   -2.221481
     19          6           0       -0.650907   -2.806242   -0.393579
     20          6           0        0.685134   -1.411169   -2.332092
     21          1           0       -1.264699   -0.729938   -2.881159
     22          6           0        0.705216   -2.906568   -0.431099
     23          1           0       -1.236120   -3.297134    0.376510
     24          6           0        1.444369   -2.107447   -1.344204
     25          1           0        1.172056   -0.850794   -3.118796
     26          1           0        1.194259   -3.494581    0.332430
     27          7           0        2.767528   -2.015858   -1.280594
     28          6           0        3.507706   -2.481416   -0.098067
     29          1           0        3.382759   -3.559398    0.036156
     30          1           0        3.126210   -1.937201    0.778374
     31          6           0        3.497760   -0.947523   -1.978853
     32          1           0        3.736849   -1.263426   -3.001785
     33          1           0        2.874296   -0.049495   -1.994210
     34          7           0       -1.292870   -0.276631    0.881462
     35         16           0       -1.331282   -1.106412    2.287109
     36          8           0       -2.551482   -1.918759    2.301745
     37          8           0       -0.050804   -1.795821    2.461756
     38          6           0       -0.564510    2.667754   -0.027485
     39          6           0       -0.091764    2.145840   -1.241972
     40          6           0       -0.867344    2.221195   -2.397609
     41          6           0       -2.131936    2.809486   -2.374450
     42          6           0       -2.614280    3.327263   -1.175384
     43          6           0       -1.832881    3.256223   -0.021769
     44          1           0        0.861951    1.629074   -1.246491
     45          1           0       -0.473263    1.822036   -3.330156
     46          1           0       -2.729854    2.870435   -3.279637
     47          1           0       -3.595887    3.791547   -1.136333
     48          1           0       -2.218368    3.673059    0.906702
     49          8           0        0.729531    1.541526    1.844913
     50          1           0       -0.320799   -0.040963    0.559344
     51          6           0        1.890786    0.813752    1.228867
     52          8           0        1.511593    0.200742    0.130026
     53          8           0        2.254638   -0.061848    2.280249
     54          1           0        1.560252   -0.744960    2.290371
     55          6           0        3.082094    1.800241    1.131546
     56          1           0        3.006917    2.516713    1.959449
     57          1           0        3.984407    1.210835    1.336339
     58          6           0        0.263446    2.725920    1.260951
     59          1           0       -0.378947    3.189480    2.021439
     60          1           0        1.094363    3.429471    1.100677
     61          6           0       -1.432283    0.125916    3.563980
     62          1           0       -0.549001    0.759379    3.443418
     63          1           0       -2.354637    0.691103    3.419094
     64          1           0       -1.438527   -0.392522    4.524218
     65          6           0        3.268267    2.537855   -0.191613
     66          1           0        3.416280    1.808221   -0.996801
     67          1           0        2.367620    3.096623   -0.467491
     68          6           0        4.454289    3.499309   -0.131624
     69          1           0        4.612109    4.013883   -1.084459
     70          1           0        4.293237    4.261777    0.638451
     71          1           0        5.377808    2.967776    0.124398
     72          6           0        4.943482   -2.083411   -0.419545
     73          1           0        5.557566   -2.010565    0.479784
     74          1           0        5.397695   -2.816546   -1.095394
     75          6           0        4.751085   -0.738890   -1.123958
     76          1           0        4.534644    0.027999   -0.375552
     77          1           0        5.612411   -0.424307   -1.716911
 ---------------------------------------------------------------------

 SCF Done:  E(RM062X) =  -1991.35793396     A.U. after   14 cycles

 The electronic state is 1-A.
 Alpha  occ. eigenvalues --  -90.14313 -19.61904 -19.61866 -19.58589 -19.56663
 Alpha  occ. eigenvalues --  -19.51075 -14.85220 -14.80411 -14.76059 -10.63412
 Alpha  occ. eigenvalues --  -10.62788 -10.62247 -10.62147 -10.60811 -10.59475
 Alpha  occ. eigenvalues --  -10.58329 -10.57998 -10.57968 -10.57186 -10.56890
 Alpha  occ. eigenvalues --  -10.56740 -10.55709 -10.55665 -10.55075 -10.54867
 Alpha  occ. eigenvalues --  -10.54862 -10.54754 -10.54730 -10.54603 -10.54419
 Alpha  occ. eigenvalues --  -10.54396 -10.54342 -10.53036 -10.51407 -10.51371
 Alpha  occ. eigenvalues --  -10.49600  -8.45289  -6.37508  -6.37482  -6.37324
 Alpha  occ. eigenvalues --   -1.22129  -1.13608  -1.13380  -1.10382  -1.09316
 Alpha  occ. eigenvalues --   -1.05808  -1.01900  -0.99245  -0.95797  -0.95004
 Alpha  occ. eigenvalues --   -0.93531  -0.90321  -0.88762  -0.86011  -0.85681
 Alpha  occ. eigenvalues --   -0.84829  -0.84746  -0.84174  -0.83066  -0.82776
 Alpha  occ. eigenvalues --   -0.76687  -0.76191  -0.75818  -0.74301  -0.72882
 Alpha  occ. eigenvalues --   -0.71706  -0.68324  -0.68195  -0.67936  -0.67281
 Alpha  occ. eigenvalues --   -0.66710  -0.65266  -0.64857  -0.63533  -0.60527
 Alpha  occ. eigenvalues --   -0.60401  -0.59751  -0.59200  -0.57793  -0.57641
 Alpha  occ. eigenvalues --   -0.57224  -0.56457  -0.55809  -0.55156  -0.54221
 Alpha  occ. eigenvalues --   -0.53587  -0.52702  -0.52521  -0.52495  -0.51913
 Alpha  occ. eigenvalues --   -0.51564  -0.50980  -0.50622  -0.49905  -0.49488
 Alpha  occ. eigenvalues --   -0.49159  -0.48882  -0.48213  -0.48131  -0.47947
 Alpha  occ. eigenvalues --   -0.47717  -0.47497  -0.46956  -0.46390  -0.46094
 Alpha  occ. eigenvalues --   -0.44922  -0.44735  -0.44194  -0.43843  -0.43273
 Alpha  occ. eigenvalues --   -0.42560  -0.42170  -0.41347  -0.41259  -0.41054
 Alpha  occ. eigenvalues --   -0.40897  -0.40524  -0.39991  -0.39771  -0.39251
 Alpha  occ. eigenvalues --   -0.39234  -0.39093  -0.38418  -0.38046  -0.37652
 Alpha  occ. eigenvalues --   -0.37371  -0.36740  -0.36520  -0.35820  -0.34929
 Alpha  occ. eigenvalues --   -0.34401  -0.34030  -0.31683  -0.31180  -0.29784
 Alpha  occ. eigenvalues --   -0.28864  -0.28605  -0.27687  -0.24651  -0.24275
 Alpha virt. eigenvalues --   -0.01519   0.00383   0.03522   0.03730   0.10122
 Alpha virt. eigenvalues --    0.10903   0.11605   0.12273   0.13146   0.13443
 Alpha virt. eigenvalues --    0.14224   0.14478   0.14751   0.15234   0.15596

 Mulliken charges:
               1
     1  C   -0.306304
     2  C   -0.307275
     3  C   -0.309177
     4  C   -0.060183
     5  C    0.055867
     6  C   -0.310909
     7  H    0.174307
     8  H    0.163002
     9  H    0.165803
    10  H    0.150741
    11  H    0.163817
    12  H    0.208893
    13  H    0.173707
    14  H    0.194069
    15  H    0.163438
    16  H    0.154672
    17  N   -0.431403
    18  C    0.067785
    19  C    0.064974
    20  C   -0.201538
    21  H    0.206066
    22  C   -0.209929
    23  H    0.244512
    24  C    0.446227
    25  H    0.192325
    26  H    0.211353
    27  N   -0.525179
    28  C   -0.169827
    29  H    0.169575
    30  H    0.227456
    31  C   -0.154185
    32  H    0.164435
    33  H    0.207177
    34  N   -0.812778
    35  S    1.251373
    36  O   -0.610060
    37  O   -0.604113
    38  C    0.080874
    39  C   -0.186891
    40  C   -0.190232
    41  C   -0.171874
    42  C   -0.163919
    43  C   -0.211510
    44  H    0.215595
    45  H    0.140335
    46  H    0.154954
    47  H    0.158569
    48  H    0.152377
    49  O   -0.554084
    50  H    0.446883
    51  C    0.721943
    52  O   -0.719894
    53  O   -0.717210
    54  H    0.442581
    55  C   -0.338073
    56  H    0.148072
    57  H    0.151135
    58  C   -0.089006
    59  H    0.138621
    60  H    0.148139
    61  C   -0.663633
    62  H    0.275650
    63  H    0.196622
    64  H    0.217967
    65  C   -0.290864
    66  H    0.133671
    67  H    0.145663
    68  C   -0.473250
    69  H    0.148643
    70  H    0.153489
    71  H    0.146262
    72  C   -0.332172
    73  H    0.186668
    74  H    0.162622
    75  C   -0.342627
    76  H    0.198553
    77  H    0.170639
 Sum of Mulliken charges =  -0.00000

 Dipole moment (field-independent basis, Debye):
    X=             -2.7572    Y=             -2.0535    Z=             -6.2627  Tot=              7.1442
 Quadrupole moment (field-independent basis, Debye-Ang):
   XX=           -206.2310   YY=           -222.2085   ZZ=           -220.1657
   XY=            -12.6087   XZ=             -5.0075   YZ=             10.1470

 Normal termination of Gaussian 16 at Thu Feb  7 13:35:48 2019.
