 Gaussian 16, Revision A.03,
 Gaussian 16:  ES64L-G16RevA.03 25-Dec-2016

 ------------------------------------------
 #p M062X/6-31G* em=gd3 force int=ultrafine
 ------------------------------------------

 -----
 Title
 -----
 Symbolic Z-matrix:
 Charge =  0 Multiplicity = 1

                         Standard orientation:
 ---------------------------------------------------------------------
 Center     Atomic      Atomic             Coordinates (Angstroms)
 Number     Number       Type             X           Y           Z
 ---------------------------------------------------------------------
      1          6           0       -4.867230    0.230615   -0.459887
      2          6           0       -4.968332   -1.058885   -1.280080
      3          6           0       -3.603389   -1.441272   -1.865793
      4          6           0       -2.600698   -1.598090   -0.726632
      5          6           0       -2.452131   -0.276670    0.080727
      6          6           0       -3.823897    0.107272    0.654944
      7          1           0       -3.667920   -2.364973   -2.452246
      8          1           0       -5.329103   -1.874751   -0.640188
      9          1           0       -5.694880   -0.943514   -2.091272
     10          1           0       -4.575496    1.054183   -1.126987
     11          1           0       -5.846440    0.488324   -0.042516
     12          1           0       -2.937955   -2.387775   -0.048600
     13          1           0       -2.204342    0.490995   -0.668203
     14          1           0       -4.134485   -0.643388    1.392491
     15          1           0       -3.709488    1.064858    1.176865
     16          1           0       -3.287926   -0.634934   -2.542137
     17          7           0       -1.246103   -2.004626   -1.170733
     18          6           0       -0.614691   -1.336371   -2.164072
     19          6           0       -0.506188   -2.756352   -0.321486
     20          6           0        0.739942   -1.382991   -2.328786
     21          1           0       -1.243059   -0.736334   -2.809521
     22          6           0        0.852922   -2.849189   -0.420251
     23          1           0       -1.053418   -3.239641    0.480878
     24          6           0        1.545432   -2.081429   -1.386615
     25          1           0        1.184874   -0.827430   -3.143842
     26          1           0        1.374228   -3.420610    0.334800
     27          7           0        2.883763   -2.002543   -1.393120
     28          6           0        3.660653   -2.485692   -0.243837
     29          1           0        3.591201   -3.573908   -0.158640
     30          1           0        3.264824   -2.028822    0.673987
     31          6           0        3.597907   -0.937926   -2.115879
     32          1           0        3.862737   -1.278127   -3.124222
     33          1           0        2.966574   -0.047920   -2.181697
     34          7           0       -1.324453   -0.282533    0.985123
     35         16           0       -1.304329   -1.185692    2.282132
     36          8           0       -2.352341   -2.229608    2.302536
     37          8           0        0.079600   -1.688612    2.499446
     38          6           0       -0.919244    2.831825   -0.132334
     39          6           0       -0.284114    2.149283   -1.177499
     40          6           0       -0.889794    2.082672   -2.430579
     41          6           0       -2.144860    2.653979   -2.646671
     42          6           0       -2.793773    3.300276   -1.597733
     43          6           0       -2.177542    3.388310   -0.351826
     44          1           0        0.661250    1.641659   -0.992600
     45          1           0       -0.380350    1.578014   -3.248785
     46          1           0       -2.615077    2.596059   -3.623837
     47          1           0       -3.777378    3.736270   -1.744290
     48          1           0       -2.681244    3.887969    0.472265
     49          8           0        0.281897    1.749479    1.677632
     50          1           0       -0.293510    0.994750    1.335337
     51          6           0        2.442165    0.603564    1.171522
     52          8           0        2.092080    0.186910    0.081651
     53          8           0        2.272778   -0.069392    2.302201
     54          1           0        1.544189   -0.739231    2.200015
     55          6           0        3.178126    1.908628    1.367019
     56          1           0        2.648311    2.449882    2.157516
     57          1           0        4.180178    1.684234    1.757523
     58          6           0       -0.274302    2.949312    1.232031
     59          1           0       -1.019892    3.340191    1.943271
     60          1           0        0.540610    3.688371    1.192621
     61          6           0       -1.586592   -0.089417    3.670736
     62          1           0       -0.825563    0.692329    3.608149
     63          1           0       -2.586186    0.339209    3.575853
     64          1           0       -1.491468   -0.655785    4.598012
     65          6           0        3.262814    2.737693    0.089904
     66          1           0        3.672846    2.122979   -0.720276
     67          1           0        2.250036    3.010042   -0.228582
     68          6           0        4.108721    3.994749    0.270936
     69          1           0        4.185136    4.561314   -0.661653
     70          1           0        3.676993    4.655269    1.030255
     71          1           0        5.124295    3.739869    0.592911
     72          6           0        5.077383   -2.002336   -0.540364
     73          1           0        5.669727   -1.897678    0.370897
     74          1           0        5.586230   -2.708222   -1.204512
     75          6           0        4.836219   -0.670587   -1.254784
     76          1           0        4.592822    0.101754   -0.520120
     77          1           0        5.689791   -0.332526   -1.845905
 ---------------------------------------------------------------------

 SCF Done:  E(RM062X) =  -1991.38513061     A.U. after   15 cycles

 The electronic state is 1-A.
 Alpha  occ. eigenvalues --  -90.10267 -19.63532 -19.60187 -19.58894 -19.58399
 Alpha  occ. eigenvalues --  -19.58300 -14.84786 -14.80440 -14.69300 -10.65701
 Alpha  occ. eigenvalues --  -10.63208 -10.62420 -10.61550 -10.59183 -10.59093
 Alpha  occ. eigenvalues --  -10.58938 -10.57824 -10.57378 -10.56768 -10.56700
 Alpha  occ. eigenvalues --  -10.55960 -10.55709 -10.55598 -10.55042 -10.54975
 Alpha  occ. eigenvalues --  -10.54908 -10.54633 -10.54597 -10.54508 -10.53916
 Alpha  occ. eigenvalues --  -10.53589 -10.53443 -10.53410 -10.53372 -10.52823
 Alpha  occ. eigenvalues --  -10.52626  -8.41224  -6.33461  -6.33370  -6.33290
 Alpha  occ. eigenvalues --   -1.19225  -1.17750  -1.12922  -1.10145  -1.09961
 Alpha  occ. eigenvalues --   -1.09084  -1.06031  -0.97527  -0.95330  -0.94745
 Alpha  occ. eigenvalues --   -0.92187  -0.89822  -0.88559  -0.88290  -0.85072
 Alpha  occ. eigenvalues --   -0.84865  -0.83688  -0.83526  -0.83289  -0.80068
 Alpha  occ. eigenvalues --   -0.79347  -0.76319  -0.75618  -0.74667  -0.70940
 Alpha  occ. eigenvalues --   -0.70243  -0.69275  -0.68673  -0.68340  -0.68077
 Alpha  occ. eigenvalues --   -0.65948  -0.64751  -0.63917  -0.63475  -0.61599
 Alpha  occ. eigenvalues --   -0.60262  -0.59366  -0.59076  -0.58353  -0.56156
 Alpha  occ. eigenvalues --   -0.55586  -0.55262  -0.55142  -0.54323  -0.53830
 Alpha  occ. eigenvalues --   -0.53452  -0.53052  -0.52581  -0.51887  -0.51658
 Alpha  occ. eigenvalues --   -0.51080  -0.50952  -0.50616  -0.50038  -0.49829
 Alpha  occ. eigenvalues --   -0.49660  -0.49528  -0.48780  -0.48317  -0.48006
 Alpha  occ. eigenvalues --   -0.47789  -0.47215  -0.47065  -0.46979  -0.45846
 Alpha  occ. eigenvalues --   -0.45601  -0.45201  -0.43950  -0.43681  -0.43459
 Alpha  occ. eigenvalues --   -0.42862  -0.42796  -0.42168  -0.42041  -0.41848
 Alpha  occ. eigenvalues --   -0.41192  -0.40916  -0.40523  -0.39884  -0.39613
 Alpha  occ. eigenvalues --   -0.39372  -0.39309  -0.39007  -0.38402  -0.38041
 Alpha  occ. eigenvalues --   -0.37354  -0.36247  -0.35814  -0.35333  -0.35171
 Alpha  occ. eigenvalues --   -0.34285  -0.33011  -0.31996  -0.31661  -0.31382
 Alpha  occ. eigenvalues --   -0.29930  -0.28829  -0.28327  -0.27343  -0.25349
 Alpha virt. eigenvalues --   -0.01051   0.00678   0.03154   0.03723   0.08847
 Alpha virt. eigenvalues --    0.10170   0.10942   0.11801   0.12955   0.13539
 Alpha virt. eigenvalues --    0.13821   0.14310   0.14984   0.15475   0.15853

 Mulliken charges:
               1
     1  C   -0.303955
     2  C   -0.304235
     3  C   -0.309790
     4  C   -0.072303
     5  C    0.066663
     6  C   -0.304813
     7  H    0.166823
     8  H    0.161220
     9  H    0.159222
    10  H    0.145268
    11  H    0.156956
    12  H    0.210425
    13  H    0.140657
    14  H    0.180255
    15  H    0.150295
    16  H    0.149900
    17  N   -0.423977
    18  C    0.097759
    19  C    0.087679
    20  C   -0.226519
    21  H    0.204612
    22  C   -0.226784
    23  H    0.261405
    24  C    0.426981
    25  H    0.187611
    26  H    0.207720
    27  N   -0.527137
    28  C   -0.158843
    29  H    0.178244
    30  H    0.198288
    31  C   -0.145974
    32  H    0.169588
    33  H    0.194224
    34  N   -0.764367
    35  S    1.247895
    36  O   -0.641437
    37  O   -0.669267
    38  C    0.050450
    39  C   -0.176136
    40  C   -0.188453
    41  C   -0.169529
    42  C   -0.160923
    43  C   -0.199571
    44  H    0.204464
    45  H    0.139480
    46  H    0.156927
    47  H    0.162237
    48  H    0.158237
    49  O   -0.716880
    50  H    0.485296
    51  C    0.659665
    52  O   -0.520913
    53  O   -0.647099
    54  H    0.484060
    55  C   -0.372690
    56  H    0.202990
    57  H    0.166182
    58  C   -0.063138
    59  H    0.126934
    60  H    0.147043
    61  C   -0.662118
    62  H    0.227512
    63  H    0.186013
    64  H    0.206233
    65  C   -0.289872
    66  H    0.146100
    67  H    0.162270
    68  C   -0.480443
    69  H    0.159473
    70  H    0.158573
    71  H    0.151792
    72  C   -0.336523
    73  H    0.184427
    74  H    0.169762
    75  C   -0.335712
    76  H    0.180723
    77  H    0.172865
 Sum of Mulliken charges =  -0.00000

 Dipole moment (field-independent basis, Debye):
    X=              1.5900    Y=             -0.0847    Z=             -6.6965  Tot=              6.8832
 Quadrupole moment (field-independent basis, Debye-Ang):
   XX=           -199.5700   YY=           -222.4472   ZZ=           -222.7138
   XY=            -11.5908   XZ=              0.2594   YZ=             12.8373

 Normal termination of Gaussian 16 at Thu Feb  7 22:27:53 2019.
