 Gaussian 16, Revision A.03,
 Gaussian 16:  ES64L-G16RevA.03 25-Dec-2016

 ------------------------------------------
 #p M062X/6-31G* em=gd3 force int=ultrafine
 ------------------------------------------

 -----
 Title
 -----
 Symbolic Z-matrix:
 Charge =  0 Multiplicity = 1

                         Standard orientation:
 ---------------------------------------------------------------------
 Center     Atomic      Atomic             Coordinates (Angstroms)
 Number     Number       Type             X           Y           Z
 ---------------------------------------------------------------------
      1          6           0       -4.782416    0.428740   -0.530167
      2          6           0       -4.976687   -0.859317   -1.335862
      3          6           0       -3.653127   -1.318100   -1.960488
      4          6           0       -2.636148   -1.530907   -0.845347
      5          6           0       -2.396427   -0.217558   -0.056389
      6          6           0       -3.715932    0.263426    0.557274
      7          1           0       -3.782045   -2.240242   -2.537184
      8          1           0       -5.358930   -1.651630   -0.678903
      9          1           0       -5.722233   -0.709241   -2.122990
     10          1           0       -4.476510    1.233702   -1.211141
     11          1           0       -5.730829    0.734256   -0.076388
     12          1           0       -3.013383   -2.289129   -0.152335
     13          1           0       -2.080011    0.538818   -0.786030
     14          1           0       -4.056308   -0.456663    1.309009
     15          1           0       -3.530219    1.219445    1.058342
     16          1           0       -3.306999   -0.535579   -2.649248
     17          7           0       -1.316054   -2.017320   -1.297861
     18          6           0       -0.632161   -1.334591   -2.254471
     19          6           0       -0.617842   -2.809460   -0.440768
     20          6           0        0.723909   -1.383822   -2.352546
     21          1           0       -1.226991   -0.715949   -2.915197
     22          6           0        0.739646   -2.893315   -0.462792
     23          1           0       -1.206786   -3.316259    0.316101
     24          6           0        1.479358   -2.076142   -1.358943
     25          1           0        1.212592   -0.814280   -3.131350
     26          1           0        1.226811   -3.483933    0.299958
     27          7           0        2.800255   -1.965448   -1.275377
     28          6           0        3.530083   -2.409925   -0.077917
     29          1           0        3.418136   -3.488189    0.064892
     30          1           0        3.128431   -1.863474    0.788170
     31          6           0        3.525281   -0.895910   -1.974865
     32          1           0        3.772567   -1.215484   -2.994634
     33          1           0        2.892774   -0.004601   -2.004129
     34          7           0       -1.275033   -0.316984    0.864496
     35         16           0       -1.325585   -1.166706    2.254863
     36          8           0       -2.525723   -2.009184    2.237357
     37          8           0       -0.032570   -1.828750    2.446788
     38          6           0       -0.604190    2.688823    0.037377
     39          6           0       -0.131311    2.204820   -1.192717
     40          6           0       -0.915135    2.296797   -2.341310
     41          6           0       -2.188420    2.865107   -2.295304
     42          6           0       -2.671417    3.344021   -1.080738
     43          6           0       -1.881400    3.256352    0.065887
     44          1           0        0.829624    1.703259   -1.218432
     45          1           0       -0.521326    1.927306   -3.286003
     46          1           0       -2.793028    2.940009   -3.194992
     47          1           0       -3.659974    3.791436   -1.023873
     48          1           0       -2.266642    3.644645    1.006737
     49          8           0        0.703341    1.547226    1.891164
     50          1           0       -0.293765   -0.068263    0.551339
     51          6           0        1.847017    0.824243    1.252690
     52          8           0        1.447900    0.216373    0.154492
     53          8           0        2.233430   -0.058822    2.289950
     54          1           0        1.540773   -0.744025    2.310561
     55          6           0        3.044394    1.803253    1.134600
     56          1           0        2.993723    2.519178    1.965260
     57          1           0        3.942000    1.201411    1.323027
     58          6           0        0.235150    2.736366    1.318077
     59          1           0       -0.397319    3.197654    2.087852
     60          1           0        1.067408    3.436968    1.153039
     61          6           0       -1.481841    0.042958    3.547920
     62          1           0       -0.614991    0.702565    3.451261
     63          1           0       -2.416826    0.584829    3.395294
     64          1           0       -1.490046   -0.488646    4.500879
     65          6           0        3.219919    2.537775   -0.191311
     66          1           0        3.246183    1.806288   -1.005954
     67          1           0        2.362840    3.186536   -0.406817
     68          6           0        4.496086    3.377876   -0.203999
     69          1           0        4.632031    3.897279   -1.157712
     70          1           0        4.471709    4.133837    0.589164
     71          1           0        5.378987    2.752884   -0.029850
     72          6           0        4.965630   -1.998253   -0.384103
     73          1           0        5.563933   -1.902500    0.523728
     74          1           0        5.439896   -2.737264   -1.039275
     75          6           0        4.772607   -0.667786   -1.115718
     76          1           0        4.554195    0.115221   -0.385173
     77          1           0        5.636948   -0.364198   -1.710052
 ---------------------------------------------------------------------

 SCF Done:  E(RM062X) =  -1991.35856408     A.U. after   14 cycles

 The electronic state is 1-A.
 Alpha  occ. eigenvalues --  -90.14170 -19.61775 -19.61753 -19.58692 -19.56701
 Alpha  occ. eigenvalues --  -19.51270 -14.85167 -14.80449 -14.75735 -10.63419
 Alpha  occ. eigenvalues --  -10.62787 -10.62255 -10.62187 -10.60723 -10.59339
 Alpha  occ. eigenvalues --  -10.58471 -10.57997 -10.57945 -10.57155 -10.56892
 Alpha  occ. eigenvalues --  -10.56688 -10.55656 -10.55602 -10.55117 -10.54846
 Alpha  occ. eigenvalues --  -10.54836 -10.54784 -10.54720 -10.54570 -10.54397
 Alpha  occ. eigenvalues --  -10.54319 -10.54316 -10.53077 -10.51521 -10.51471
 Alpha  occ. eigenvalues --  -10.49703  -8.45146  -6.37363  -6.37341  -6.37183
 Alpha  occ. eigenvalues --   -1.21993  -1.13593  -1.13496  -1.10250  -1.09348
 Alpha  occ. eigenvalues --   -1.05875  -1.01725  -0.99326  -0.95741  -0.94986
 Alpha  occ. eigenvalues --   -0.93491  -0.90298  -0.88754  -0.85902  -0.85787
 Alpha  occ. eigenvalues --   -0.84821  -0.84706  -0.84241  -0.83053  -0.82691
 Alpha  occ. eigenvalues --   -0.76665  -0.76285  -0.75833  -0.74368  -0.72785
 Alpha  occ. eigenvalues --   -0.71642  -0.68328  -0.68234  -0.67937  -0.67202
 Alpha  occ. eigenvalues --   -0.66747  -0.65227  -0.64867  -0.63526  -0.60558
 Alpha  occ. eigenvalues --   -0.60403  -0.59783  -0.59007  -0.57806  -0.57591
 Alpha  occ. eigenvalues --   -0.57173  -0.56436  -0.55780  -0.55170  -0.54194
 Alpha  occ. eigenvalues --   -0.53542  -0.52653  -0.52453  -0.52428  -0.51902
 Alpha  occ. eigenvalues --   -0.51548  -0.51028  -0.50773  -0.49875  -0.49564
 Alpha  occ. eigenvalues --   -0.49159  -0.48833  -0.48207  -0.48136  -0.48022
 Alpha  occ. eigenvalues --   -0.47667  -0.47462  -0.46909  -0.46438  -0.46103
 Alpha  occ. eigenvalues --   -0.44881  -0.44733  -0.44140  -0.43871  -0.43260
 Alpha  occ. eigenvalues --   -0.42507  -0.42129  -0.41413  -0.41329  -0.41121
 Alpha  occ. eigenvalues --   -0.40900  -0.40477  -0.39993  -0.39815  -0.39326
 Alpha  occ. eigenvalues --   -0.39255  -0.39067  -0.38443  -0.37952  -0.37593
 Alpha  occ. eigenvalues --   -0.37391  -0.36740  -0.36565  -0.35738  -0.34903
 Alpha  occ. eigenvalues --   -0.34387  -0.33959  -0.31672  -0.31087  -0.29769
 Alpha  occ. eigenvalues --   -0.28880  -0.28599  -0.27643  -0.24864  -0.24422
 Alpha virt. eigenvalues --   -0.01518   0.00408   0.03556   0.03760   0.10142
 Alpha virt. eigenvalues --    0.11001   0.11652   0.12191   0.13179   0.13515
 Alpha virt. eigenvalues --    0.14211   0.14608   0.14759   0.15233   0.15600

 Mulliken charges:
               1
     1  C   -0.306257
     2  C   -0.307104
     3  C   -0.309322
     4  C   -0.060060
     5  C    0.056792
     6  C   -0.311593
     7  H    0.173937
     8  H    0.162804
     9  H    0.165466
    10  H    0.151069
    11  H    0.163278
    12  H    0.208942
    13  H    0.172963
    14  H    0.193010
    15  H    0.163605
    16  H    0.154196
    17  N   -0.430609
    18  C    0.067535
    19  C    0.063663
    20  C   -0.202066
    21  H    0.206538
    22  C   -0.209046
    23  H    0.245375
    24  C    0.446149
    25  H    0.191917
    26  H    0.211562
    27  N   -0.526299
    28  C   -0.171360
    29  H    0.169776
    30  H    0.230311
    31  C   -0.154726
    32  H    0.166030
    33  H    0.205068
    34  N   -0.816042
    35  S    1.253606
    36  O   -0.612148
    37  O   -0.606769
    38  C    0.085398
    39  C   -0.183549
    40  C   -0.189651
    41  C   -0.171056
    42  C   -0.163713
    43  C   -0.212146
    44  H    0.210412
    45  H    0.140630
    46  H    0.154890
    47  H    0.158587
    48  H    0.152489
    49  O   -0.550166
    50  H    0.448719
    51  C    0.725265
    52  O   -0.722478
    53  O   -0.718102
    54  H    0.444927
    55  C   -0.338534
    56  H    0.148994
    57  H    0.151008
    58  C   -0.091792
    59  H    0.140158
    60  H    0.147623
    61  C   -0.663257
    62  H    0.273251
    63  H    0.196298
    64  H    0.217563
    65  C   -0.293173
    66  H    0.136897
    67  H    0.146240
    68  C   -0.473642
    69  H    0.148964
    70  H    0.154640
    71  H    0.144783
    72  C   -0.331867
    73  H    0.187267
    74  H    0.163028
    75  C   -0.343322
    76  H    0.197067
    77  H    0.171161
 Sum of Mulliken charges =  -0.00000

 Dipole moment (field-independent basis, Debye):
    X=             -2.5162    Y=             -1.8998    Z=             -6.3700  Tot=              7.1076
 Quadrupole moment (field-independent basis, Debye-Ang):
   XX=           -205.6356   YY=           -222.8985   ZZ=           -219.8503
   XY=            -12.3341   XZ=             -5.3544   YZ=             10.0192

 Normal termination of Gaussian 16 at Thu Feb  7 15:04:29 2019.
