 Gaussian 16, Revision A.03,
 Gaussian 16:  ES64L-G16RevA.03 25-Dec-2016

 ------------------------------------------
 #p M062X/6-31G* em=gd3 force int=ultrafine
 ------------------------------------------

 -----
 Title
 -----
 Symbolic Z-matrix:
 Charge =  0 Multiplicity = 1

                         Standard orientation:
 ---------------------------------------------------------------------
 Center     Atomic      Atomic             Coordinates (Angstroms)
 Number     Number       Type             X           Y           Z
 ---------------------------------------------------------------------
      1          6           0       -4.844559    0.409334   -0.510636
      2          6           0       -4.985250   -0.863196   -1.351006
      3          6           0       -3.631257   -1.276784   -1.940023
      4          6           0       -2.640282   -1.497253   -0.801080
      5          6           0       -2.460158   -0.207438    0.041158
      6          6           0       -3.815847    0.231719    0.610953
      7          1           0       -3.720607   -2.184585   -2.546933
      8          1           0       -5.373220   -1.678111   -0.725785
      9          1           0       -5.705604   -0.711551   -2.161345
     10          1           0       -4.523392    1.234101   -1.161737
     11          1           0       -5.815505    0.691395   -0.090242
     12          1           0       -3.011052   -2.293476   -0.147879
     13          1           0       -2.138124    0.573442   -0.661690
     14          1           0       -4.167015   -0.512440    1.334913
     15          1           0       -3.665499    1.178686    1.142354
     16          1           0       -3.284124   -0.465985   -2.594730
     17          7           0       -1.297365   -1.935711   -1.246530
     18          6           0       -0.634165   -1.253369   -2.212321
     19          6           0       -0.586315   -2.735322   -0.413369
     20          6           0        0.719728   -1.326006   -2.357990
     21          1           0       -1.237324   -0.617917   -2.847791
     22          6           0        0.770359   -2.850749   -0.489078
     23          1           0       -1.157648   -3.241392    0.357215
     24          6           0        1.496613   -2.063961   -1.419730
     25          1           0        1.189710   -0.753840   -3.146967
     26          1           0        1.268047   -3.460061    0.252170
     27          7           0        2.830899   -2.009141   -1.400748
     28          6           0        3.580909   -2.520687   -0.244295
     29          1           0        3.471067   -3.605155   -0.159142
     30          1           0        3.195358   -2.038351    0.664958
     31          6           0        3.576023   -0.939779   -2.087826
     32          1           0        3.843455   -1.261486   -3.101341
     33          1           0        2.964387   -0.035288   -2.130588
     34          7           0       -1.352084   -0.323661    0.972950
     35         16           0       -1.393991   -1.223417    2.314824
     36          8           0       -2.561562   -2.115783    2.280656
     37          8           0       -0.074370   -1.857598    2.489561
     38          6           0       -0.705009    2.759553   -0.066410
     39          6           0       -0.141265    2.114254   -1.176786
     40          6           0       -0.794463    2.146126   -2.407480
     41          6           0       -2.032542    2.778519   -2.539996
     42          6           0       -2.607764    3.395243   -1.431412
     43          6           0       -1.939948    3.387255   -0.209083
     44          1           0        0.786795    1.557608   -1.052349
     45          1           0       -0.338452    1.671086   -3.274641
     46          1           0       -2.542950    2.795870   -3.498362
     47          1           0       -3.574117    3.883490   -1.513396
     48          1           0       -2.384563    3.862051    0.662571
     49          8           0        0.348936    1.423925    1.627596
     50          1           0       -0.548724    0.503141    1.112305
     51          6           0        2.294832    0.615598    1.173862
     52          8           0        2.062309    0.153770    0.063306
     53          8           0        2.238800   -0.134180    2.289143
     54          1           0        1.532266   -0.807528    2.177287
     55          6           0        3.091990    1.884395    1.388799
     56          1           0        2.647897    2.469164    2.200985
     57          1           0        4.071854    1.544608    1.753461
     58          6           0       -0.030199    2.700133    1.293915
     59          1           0       -0.728161    3.129920    2.038338
     60          1           0        0.837029    3.393861    1.281923
     61          6           0       -1.534660   -0.057071    3.656431
     62          1           0       -0.705530    0.643540    3.509893
     63          1           0       -2.497393    0.450482    3.576015
     64          1           0       -1.451237   -0.598627    4.599765
     65          6           0        3.282412    2.720497    0.126011
     66          1           0        3.666710    2.076485   -0.673701
     67          1           0        2.317175    3.094779   -0.232895
     68          6           0        4.236516    3.890270    0.358974
     69          1           0        4.403631    4.462436   -0.558509
     70          1           0        3.840441    4.577645    1.114212
     71          1           0        5.209948    3.535046    0.715088
     72          6           0        5.012733   -2.083870   -0.533836
     73          1           0        5.613810   -2.028840    0.375784
     74          1           0        5.489736   -2.786886   -1.224855
     75          6           0        4.806876   -0.723829   -1.203041
     76          1           0        4.556666    0.020809   -0.442177
     77          1           0        5.673229   -0.376431   -1.769396
 ---------------------------------------------------------------------

 SCF Done:  E(RM062X) =  -1991.36041723     A.U. after   15 cycles

 The electronic state is 1-A.
 Alpha  occ. eigenvalues --  -90.12788 -19.61959 -19.60763 -19.60543 -19.57863
 Alpha  occ. eigenvalues --  -19.53483 -14.85289 -14.80590 -14.73136 -10.64892
 Alpha  occ. eigenvalues --  -10.63532 -10.62798 -10.62230 -10.60381 -10.58836
 Alpha  occ. eigenvalues --  -10.58736 -10.58449 -10.58077 -10.57228 -10.56327
 Alpha  occ. eigenvalues --  -10.55699 -10.55320 -10.55256 -10.54839 -10.54810
 Alpha  occ. eigenvalues --  -10.54488 -10.54420 -10.54343 -10.54306 -10.53681
 Alpha  occ. eigenvalues --  -10.53657 -10.53294 -10.52973 -10.52508 -10.52274
 Alpha  occ. eigenvalues --  -10.52149  -8.43789  -6.36012  -6.35948  -6.35851
 Alpha  occ. eigenvalues --   -1.20522  -1.17251  -1.13487  -1.09517  -1.08829
 Alpha  occ. eigenvalues --   -1.07678  -1.03669  -0.99777  -0.95503  -0.94460
 Alpha  occ. eigenvalues --   -0.93204  -0.90270  -0.88838  -0.87305  -0.85135
 Alpha  occ. eigenvalues --   -0.84697  -0.84314  -0.83651  -0.82750  -0.81688
 Alpha  occ. eigenvalues --   -0.78286  -0.76713  -0.75901  -0.72070  -0.71830
 Alpha  occ. eigenvalues --   -0.71251  -0.68613  -0.68530  -0.68243  -0.67290
 Alpha  occ. eigenvalues --   -0.66083  -0.64626  -0.64187  -0.63175  -0.62024
 Alpha  occ. eigenvalues --   -0.60455  -0.60106  -0.58392  -0.58239  -0.56986
 Alpha  occ. eigenvalues --   -0.56381  -0.56261  -0.54909  -0.54157  -0.53840
 Alpha  occ. eigenvalues --   -0.53320  -0.53106  -0.52779  -0.52026  -0.51679
 Alpha  occ. eigenvalues --   -0.51484  -0.50878  -0.50779  -0.50402  -0.50068
 Alpha  occ. eigenvalues --   -0.49853  -0.48725  -0.48470  -0.48420  -0.47413
 Alpha  occ. eigenvalues --   -0.47248  -0.47222  -0.46855  -0.46270  -0.46032
 Alpha  occ. eigenvalues --   -0.45831  -0.44880  -0.44697  -0.43617  -0.43228
 Alpha  occ. eigenvalues --   -0.42835  -0.42129  -0.42044  -0.41892  -0.41501
 Alpha  occ. eigenvalues --   -0.40934  -0.40765  -0.40130  -0.39864  -0.39582
 Alpha  occ. eigenvalues --   -0.39451  -0.38823  -0.38464  -0.38246  -0.38024
 Alpha  occ. eigenvalues --   -0.37484  -0.37101  -0.36857  -0.36304  -0.35007
 Alpha  occ. eigenvalues --   -0.34333  -0.34052  -0.33335  -0.30246  -0.29508
 Alpha  occ. eigenvalues --   -0.29084  -0.28663  -0.28039  -0.25700  -0.24736
 Alpha virt. eigenvalues --   -0.01486   0.00320   0.03774   0.04505   0.10194
 Alpha virt. eigenvalues --    0.10907   0.11307   0.11656   0.12351   0.13424
 Alpha virt. eigenvalues --    0.13812   0.14121   0.15088   0.15384   0.15434

 Mulliken charges:
               1
     1  C   -0.306493
     2  C   -0.306333
     3  C   -0.311341
     4  C   -0.065738
     5  C    0.072524
     6  C   -0.307010
     7  H    0.171063
     8  H    0.162061
     9  H    0.163722
    10  H    0.151393
    11  H    0.161613
    12  H    0.209092
    13  H    0.164855
    14  H    0.187029
    15  H    0.160035
    16  H    0.155604
    17  N   -0.430109
    18  C    0.092459
    19  C    0.092505
    20  C   -0.221132
    21  H    0.207073
    22  C   -0.226501
    23  H    0.251590
    24  C    0.431274
    25  H    0.191880
    26  H    0.208905
    27  N   -0.521310
    28  C   -0.160623
    29  H    0.175103
    30  H    0.203282
    31  C   -0.147050
    32  H    0.168147
    33  H    0.199782
    34  N   -0.820751
    35  S    1.246601
    36  O   -0.616125
    37  O   -0.629498
    38  C    0.058389
    39  C   -0.192449
    40  C   -0.190115
    41  C   -0.175665
    42  C   -0.161676
    43  C   -0.205737
    44  H    0.208188
    45  H    0.134549
    46  H    0.152509
    47  H    0.157041
    48  H    0.154306
    49  O   -0.708950
    50  H    0.464661
    51  C    0.682365
    52  O   -0.551000
    53  O   -0.653245
    54  H    0.466761
    55  C   -0.359039
    56  H    0.190978
    57  H    0.158301
    58  C   -0.033183
    59  H    0.094217
    60  H    0.110897
    61  C   -0.671914
    62  H    0.264226
    63  H    0.194793
    64  H    0.213554
    65  C   -0.291570
    66  H    0.142028
    67  H    0.164416
    68  C   -0.479095
    69  H    0.156136
    70  H    0.158053
    71  H    0.149142
    72  C   -0.334755
    73  H    0.184877
    74  H    0.167031
    75  C   -0.336018
    76  H    0.187895
    77  H    0.171520
 Sum of Mulliken charges =  -0.00000

 Dipole moment (field-independent basis, Debye):
    X=             -0.0435    Y=             -1.8942    Z=             -6.2636  Tot=              6.5439
 Quadrupole moment (field-independent basis, Debye-Ang):
   XX=           -200.9186   YY=           -225.6091   ZZ=           -220.3029
   XY=            -11.3331   XZ=             -1.4218   YZ=             10.8990

 Normal termination of Gaussian 16 at Thu Feb  7 19:35:53 2019.
