 Gaussian 16, Revision A.03,
 Gaussian 16:  ES64L-G16RevA.03 25-Dec-2016

 ------------------------------------------
 #p M062X/6-31G* em=gd3 force int=ultrafine
 ------------------------------------------

 -----
 Title
 -----
 Symbolic Z-matrix:
 Charge =  0 Multiplicity = 1

                         Standard orientation:
 ---------------------------------------------------------------------
 Center     Atomic      Atomic             Coordinates (Angstroms)
 Number     Number       Type             X           Y           Z
 ---------------------------------------------------------------------
      1          6           0       -4.847162    0.378753   -0.500800
      2          6           0       -4.979303   -0.891420   -1.346613
      3          6           0       -3.624310   -1.297268   -1.939598
      4          6           0       -2.636109   -1.515927   -0.801804
      5          6           0       -2.460645   -0.232597    0.050435
      6          6           0       -3.818024    0.201093    0.618512
      7          1           0       -3.709944   -2.201923   -2.551326
      8          1           0       -5.359999   -1.710260   -0.722223
      9          1           0       -5.701552   -0.741990   -2.155486
     10          1           0       -4.529592    1.207340   -1.149664
     11          1           0       -5.820442    0.654612   -0.081556
     12          1           0       -2.995536   -2.315071   -0.146074
     13          1           0       -2.153886    0.552784   -0.658347
     14          1           0       -4.161665   -0.544569    1.344791
     15          1           0       -3.668560    1.147640    1.152781
     16          1           0       -3.280784   -0.480446   -2.589333
     17          7           0       -1.285455   -1.939424   -1.246195
     18          6           0       -0.627857   -1.251516   -2.209528
     19          6           0       -0.568380   -2.730285   -0.412051
     20          6           0        0.727644   -1.316645   -2.358615
     21          1           0       -1.235374   -0.617589   -2.842287
     22          6           0        0.790454   -2.843443   -0.495618
     23          1           0       -1.133830   -3.238252    0.361581
     24          6           0        1.509190   -2.055952   -1.427168
     25          1           0        1.193114   -0.741531   -3.148455
     26          1           0        1.291977   -3.449718    0.245661
     27          7           0        2.848014   -1.994758   -1.412251
     28          6           0        3.600929   -2.504303   -0.257724
     29          1           0        3.501996   -3.590018   -0.176979
     30          1           0        3.210659   -2.037456    0.657629
     31          6           0        3.584707   -0.917669   -2.095186
     32          1           0        3.855469   -1.231721   -3.110107
     33          1           0        2.967406   -0.016694   -2.139527
     34          7           0       -1.357365   -0.348870    0.966461
     35         16           0       -1.390283   -1.233232    2.280161
     36          8           0       -2.526145   -2.176689    2.305830
     37          8           0       -0.043990   -1.831253    2.475856
     38          6           0       -0.755597    2.776713   -0.065475
     39          6           0       -0.170221    2.135826   -1.165243
     40          6           0       -0.813695    2.158697   -2.400461
     41          6           0       -2.056156    2.779252   -2.542717
     42          6           0       -2.648298    3.394670   -1.442700
     43          6           0       -1.992413    3.395466   -0.215472
     44          1           0        0.760726    1.586261   -1.033883
     45          1           0       -0.348369    1.681134   -3.260574
     46          1           0       -2.561500    2.783415   -3.503441
     47          1           0       -3.620147    3.869442   -1.531546
     48          1           0       -2.446183    3.863615    0.654553
     49          8           0        0.275510    1.453964    1.657615
     50          1           0       -0.379299    0.755886    1.244413
     51          6           0        2.392196    0.569618    1.171885
     52          8           0        2.089244    0.155585    0.068152
     53          8           0        2.259265   -0.146412    2.287340
     54          1           0        1.530719   -0.807982    2.177470
     55          6           0        3.121832    1.874777    1.396473
     56          1           0        2.615296    2.424711    2.197753
     57          1           0        4.110550    1.604725    1.789920
     58          6           0       -0.108682    2.735607    1.298754
     59          1           0       -0.800721    3.166852    2.039567
     60          1           0        0.791106    3.368983    1.307031
     61          6           0       -1.545994   -0.087186    3.651248
     62          1           0       -0.729497    0.629292    3.530481
     63          1           0       -2.512038    0.416134    3.581721
     64          1           0       -1.453639   -0.632325    4.591532
     65          6           0        3.277246    2.726939    0.138171
     66          1           0        3.663158    2.100896   -0.674516
     67          1           0        2.299348    3.085036   -0.204937
     68          6           0        4.209159    3.914562    0.371155
     69          1           0        4.361634    4.491562   -0.545566
     70          1           0        3.805137    4.593299    1.129915
     71          1           0        5.190080    3.575042    0.721120
     72          6           0        5.029749   -2.052795   -0.541935
     73          1           0        5.628748   -1.993986    0.368975
     74          1           0        5.514515   -2.750187   -1.232801
     75          6           0        4.816144   -0.694124   -1.211988
     76          1           0        4.569462    0.052103   -0.451558
     77          1           0        5.680141   -0.342587   -1.779383
 ---------------------------------------------------------------------

 SCF Done:  E(RM062X) =  -1991.37481143     A.U. after   15 cycles

 The electronic state is 1-A.
 Alpha  occ. eigenvalues --  -90.10392 -19.63572 -19.60009 -19.58425 -19.58359
 Alpha  occ. eigenvalues --  -19.57623 -14.84812 -14.80400 -14.69364 -10.65963
 Alpha  occ. eigenvalues --  -10.63226 -10.62460 -10.61729 -10.59295 -10.59017
 Alpha  occ. eigenvalues --  -10.58832 -10.57831 -10.56922 -10.56797 -10.56792
 Alpha  occ. eigenvalues --  -10.55894 -10.55657 -10.55643 -10.55070 -10.54998
 Alpha  occ. eigenvalues --  -10.54900 -10.54641 -10.54470 -10.54393 -10.53900
 Alpha  occ. eigenvalues --  -10.53702 -10.53639 -10.53630 -10.53278 -10.53001
 Alpha  occ. eigenvalues --  -10.52660  -8.41337  -6.33574  -6.33485  -6.33408
 Alpha  occ. eigenvalues --   -1.19192  -1.17842  -1.12954  -1.10032  -1.09349
 Alpha  occ. eigenvalues --   -1.09025  -1.06162  -0.97820  -0.95343  -0.94810
 Alpha  occ. eigenvalues --   -0.92299  -0.89841  -0.88590  -0.88469  -0.84987
 Alpha  occ. eigenvalues --   -0.84778  -0.83795  -0.83578  -0.83339  -0.80045
 Alpha  occ. eigenvalues --   -0.79502  -0.76321  -0.75617  -0.74357  -0.71033
 Alpha  occ. eigenvalues --   -0.70438  -0.69436  -0.68645  -0.68345  -0.68096
 Alpha  occ. eigenvalues --   -0.65952  -0.64824  -0.63924  -0.63511  -0.61719
 Alpha  occ. eigenvalues --   -0.60329  -0.59450  -0.59063  -0.58352  -0.56242
 Alpha  occ. eigenvalues --   -0.55891  -0.55307  -0.55244  -0.54730  -0.53909
 Alpha  occ. eigenvalues --   -0.53521  -0.53066  -0.52607  -0.51859  -0.51571
 Alpha  occ. eigenvalues --   -0.51124  -0.50944  -0.50669  -0.49962  -0.49851
 Alpha  occ. eigenvalues --   -0.49803  -0.49522  -0.48762  -0.48318  -0.48035
 Alpha  occ. eigenvalues --   -0.47447  -0.47255  -0.47097  -0.46932  -0.45834
 Alpha  occ. eigenvalues --   -0.45504  -0.45191  -0.44068  -0.43829  -0.43513
 Alpha  occ. eigenvalues --   -0.43235  -0.42826  -0.42117  -0.41776  -0.41684
 Alpha  occ. eigenvalues --   -0.41280  -0.40896  -0.40496  -0.39891  -0.39738
 Alpha  occ. eigenvalues --   -0.39456  -0.39398  -0.39204  -0.38453  -0.38093
 Alpha  occ. eigenvalues --   -0.37498  -0.36331  -0.35787  -0.35436  -0.35007
 Alpha  occ. eigenvalues --   -0.34149  -0.32944  -0.31959  -0.31708  -0.30626
 Alpha  occ. eigenvalues --   -0.29981  -0.28431  -0.28296  -0.27201  -0.25513
 Alpha virt. eigenvalues --   -0.01107   0.00689   0.03142   0.03743   0.09051
 Alpha virt. eigenvalues --    0.10134   0.10950   0.11743   0.12969   0.13446
 Alpha virt. eigenvalues --    0.13755   0.14355   0.15076   0.15389   0.15857

 Mulliken charges:
               1
     1  C   -0.303789
     2  C   -0.305002
     3  C   -0.309338
     4  C   -0.068136
     5  C    0.073449
     6  C   -0.305160
     7  H    0.167357
     8  H    0.162037
     9  H    0.159630
    10  H    0.144502
    11  H    0.157743
    12  H    0.207626
    13  H    0.141847
    14  H    0.185314
    15  H    0.149998
    16  H    0.149957
    17  N   -0.425255
    18  C    0.096291
    19  C    0.098851
    20  C   -0.226388
    21  H    0.204482
    22  C   -0.228677
    23  H    0.255398
    24  C    0.426005
    25  H    0.187655
    26  H    0.207961
    27  N   -0.524624
    28  C   -0.159276
    29  H    0.177697
    30  H    0.198002
    31  C   -0.145089
    32  H    0.169299
    33  H    0.193928
    34  N   -0.790442
    35  S    1.244413
    36  O   -0.631317
    37  O   -0.662578
    38  C    0.052605
    39  C   -0.179161
    40  C   -0.188891
    41  C   -0.170344
    42  C   -0.160627
    43  C   -0.199196
    44  H    0.204674
    45  H    0.139739
    46  H    0.157001
    47  H    0.162202
    48  H    0.159099
    49  O   -0.719264
    50  H    0.489897
    51  C    0.678695
    52  O   -0.523668
    53  O   -0.646775
    54  H    0.478222
    55  C   -0.376474
    56  H    0.197583
    57  H    0.169411
    58  C   -0.059961
    59  H    0.121496
    60  H    0.134870
    61  C   -0.669034
    62  H    0.239146
    63  H    0.184132
    64  H    0.205274
    65  C   -0.293078
    66  H    0.148323
    67  H    0.163844
    68  C   -0.480531
    69  H    0.160447
    70  H    0.159201
    71  H    0.152451
    72  C   -0.334818
    73  H    0.183822
    74  H    0.169094
    75  C   -0.335123
    76  H    0.178907
    77  H    0.172434
 Sum of Mulliken charges =  -0.00000

 Dipole moment (field-independent basis, Debye):
    X=              1.7859    Y=              0.2776    Z=             -6.7276  Tot=              6.9662
 Quadrupole moment (field-independent basis, Debye-Ang):
   XX=           -201.2033   YY=           -222.9426   ZZ=           -222.6914
   XY=            -11.5915   XZ=              1.6937   YZ=             13.4539

 Normal termination of Gaussian 16 at Thu Feb  7 20:33:36 2019.
