 Gaussian 16, Revision A.03,
 Gaussian 16:  ES64L-G16RevA.03 25-Dec-2016

 ------------------------------------------
 #p M062X/6-31G* em=gd3 force int=ultrafine
 ------------------------------------------

 -----
 Title
 -----
 Symbolic Z-matrix:
 Charge =  0 Multiplicity = 1

                         Standard orientation:
 ---------------------------------------------------------------------
 Center     Atomic      Atomic             Coordinates (Angstroms)
 Number     Number       Type             X           Y           Z
 ---------------------------------------------------------------------
      1          6           0       -4.869136    0.073652   -0.426674
      2          6           0       -4.909551   -1.212179   -1.258048
      3          6           0       -3.529097   -1.524239   -1.848303
      4          6           0       -2.523263   -1.645456   -0.708172
      5          6           0       -2.426327   -0.320469    0.100741
      6          6           0       -3.813418   -0.003955    0.680381
      7          1           0       -3.550242   -2.446338   -2.440505
      8          1           0       -5.228444   -2.050352   -0.624617
      9          1           0       -5.642997   -1.125172   -2.066442
     10          1           0       -4.626516    0.917525   -1.087835
     11          1           0       -5.857260    0.274750    0.000805
     12          1           0       -2.835860   -2.445565   -0.031916
     13          1           0       -2.213829    0.459389   -0.645640
     14          1           0       -4.082799   -0.774357    1.414130
     15          1           0       -3.744060    0.954498    1.208973
     16          1           0       -3.250130   -0.699189   -2.518230
     17          7           0       -1.157847   -2.011209   -1.151154
     18          6           0       -0.546504   -1.327542   -2.145561
     19          6           0       -0.402674   -2.763881   -0.316720
     20          6           0        0.806943   -1.355578   -2.323287
     21          1           0       -1.190301   -0.733048   -2.780923
     22          6           0        0.956351   -2.837270   -0.428184
     23          1           0       -0.937766   -3.262097    0.484561
     24          6           0        1.628696   -2.050059   -1.392970
     25          1           0        1.237904   -0.792300   -3.140466
     26          1           0        1.493435   -3.412953    0.312515
     27          7           0        2.964967   -1.952274   -1.410623
     28          6           0        3.763242   -2.447256   -0.282245
     29          1           0        3.710112   -3.538142   -0.218823
     30          1           0        3.372039   -2.015068    0.649530
     31          6           0        3.657165   -0.872873   -2.130804
     32          1           0        3.915905   -1.200598   -3.145165
     33          1           0        3.012931    0.008843   -2.181363
     34          7           0       -1.301754   -0.277389    1.012791
     35         16           0       -1.262952   -1.218180    2.280471
     36          8           0       -2.254233   -2.316995    2.251128
     37          8           0        0.136380   -1.666151    2.520109
     38          6           0       -1.127248    2.857963   -0.172240
     39          6           0       -0.401618    2.187994   -1.163078
     40          6           0       -0.929778    2.062913   -2.446225
     41          6           0       -2.195810    2.565844   -2.747049
     42          6           0       -2.930928    3.210119   -1.754137
     43          6           0       -2.393308    3.356975   -0.477509
     44          1           0        0.551821    1.728504   -0.908339
     45          1           0       -0.350054    1.562407   -3.218603
     46          1           0       -2.607642    2.458128   -3.746170
     47          1           0       -3.922783    3.596352   -1.970395
     48          1           0       -2.968389    3.855516    0.299892
     49          8           0        0.220887    1.926781    1.619354
     50          1           0       -0.281336    1.101808    1.353361
     51          6           0        2.437403    0.655003    1.226331
     52          8           0        2.124485    0.213658    0.133716
     53          8           0        2.201880    0.029242    2.367428
     54          1           0        1.506838   -0.676217    2.250310
     55          6           0        3.192813    1.949142    1.418599
     56          1           0        2.716737    2.475062    2.251190
     57          1           0        4.214968    1.703001    1.740431
     58          6           0       -0.555417    3.019363    1.221148
     59          1           0       -1.381858    3.215932    1.924455
     60          1           0        0.098223    3.903066    1.247857
     61          6           0       -1.642932   -0.193665    3.698795
     62          1           0       -0.943095    0.645298    3.683033
     63          1           0       -2.671064    0.159573    3.598491
     64          1           0       -1.523092   -0.786720    4.606483
     65          6           0        3.206899    2.808268    0.161043
     66          1           0        3.632198    2.234426   -0.671367
     67          1           0        2.170514    3.027043   -0.119389
     68          6           0        3.982659    4.107451    0.354920
     69          1           0        3.991289    4.706099   -0.560551
     70          1           0        3.535260    4.714932    1.148599
     71          1           0        5.022666    3.908998    0.636407
     72          6           0        5.169102   -1.938297   -0.588576
     73          1           0        5.772143   -1.840287    0.316304
     74          1           0        5.679397   -2.626364   -1.270389
     75          6           0        4.899222   -0.598820   -1.278318
     76          1           0        4.647390    0.157548   -0.529381
     77          1           0        5.741319   -0.238127   -1.872488
 ---------------------------------------------------------------------

 SCF Done:  E(RM062X) =  -1991.38927228     A.U. after   15 cycles

 The electronic state is 1-A.
 Alpha  occ. eigenvalues --  -90.10361 -19.63375 -19.60090 -19.59259 -19.58577
 Alpha  occ. eigenvalues --  -19.58350 -14.84805 -14.80507 -14.69392 -10.65464
 Alpha  occ. eigenvalues --  -10.63232 -10.62399 -10.61508 -10.59141 -10.59076
 Alpha  occ. eigenvalues --  -10.59043 -10.57822 -10.57422 -10.56825 -10.56652
 Alpha  occ. eigenvalues --  -10.56045 -10.55754 -10.55513 -10.54971 -10.54917
 Alpha  occ. eigenvalues --  -10.54864 -10.54587 -10.54547 -10.54496 -10.53770
 Alpha  occ. eigenvalues --  -10.53718 -10.53559 -10.53161 -10.53054 -10.52623
 Alpha  occ. eigenvalues --  -10.52586  -8.41325  -6.33563  -6.33470  -6.33390
 Alpha  occ. eigenvalues --   -1.19123  -1.17884  -1.12939  -1.10299  -1.09852
 Alpha  occ. eigenvalues --   -1.09145  -1.06151  -0.97539  -0.95260  -0.94803
 Alpha  occ. eigenvalues --   -0.92186  -0.89853  -0.88584  -0.88060  -0.85017
 Alpha  occ. eigenvalues --   -0.84949  -0.83649  -0.83504  -0.83301  -0.80189
 Alpha  occ. eigenvalues --   -0.79140  -0.76353  -0.75657  -0.74682  -0.70940
 Alpha  occ. eigenvalues --   -0.70192  -0.69086  -0.68719  -0.68360  -0.68006
 Alpha  occ. eigenvalues --   -0.65799  -0.64725  -0.63943  -0.63426  -0.61625
 Alpha  occ. eigenvalues --   -0.60268  -0.59393  -0.58982  -0.58356  -0.56168
 Alpha  occ. eigenvalues --   -0.55451  -0.55163  -0.55062  -0.54083  -0.53683
 Alpha  occ. eigenvalues --   -0.53440  -0.53074  -0.52400  -0.51963  -0.51720
 Alpha  occ. eigenvalues --   -0.51140  -0.50992  -0.50610  -0.50166  -0.49829
 Alpha  occ. eigenvalues --   -0.49601  -0.49485  -0.48832  -0.48350  -0.47998
 Alpha  occ. eigenvalues --   -0.47782  -0.47171  -0.46979  -0.46952  -0.45933
 Alpha  occ. eigenvalues --   -0.45822  -0.45242  -0.43952  -0.43650  -0.43422
 Alpha  occ. eigenvalues --   -0.42764  -0.42475  -0.42242  -0.41932  -0.41897
 Alpha  occ. eigenvalues --   -0.41157  -0.40851  -0.40567  -0.39912  -0.39528
 Alpha  occ. eigenvalues --   -0.39365  -0.39205  -0.38770  -0.38380  -0.37859
 Alpha  occ. eigenvalues --   -0.37326  -0.36230  -0.35874  -0.35356  -0.35116
 Alpha  occ. eigenvalues --   -0.34391  -0.33117  -0.32080  -0.31714  -0.31500
 Alpha  occ. eigenvalues --   -0.29852  -0.28887  -0.28318  -0.27475  -0.25408
 Alpha virt. eigenvalues --   -0.01023   0.00650   0.03298   0.03793   0.09080
 Alpha virt. eigenvalues --    0.10149   0.10917   0.11795   0.12994   0.13483
 Alpha virt. eigenvalues --    0.13858   0.14244   0.15111   0.15496   0.15760

 Mulliken charges:
               1
     1  C   -0.303924
     2  C   -0.304188
     3  C   -0.309693
     4  C   -0.073354
     5  C    0.062435
     6  C   -0.305158
     7  H    0.165962
     8  H    0.160927
     9  H    0.159134
    10  H    0.146332
    11  H    0.156670
    12  H    0.212886
    13  H    0.141483
    14  H    0.179472
    15  H    0.149324
    16  H    0.150742
    17  N   -0.424410
    18  C    0.100074
    19  C    0.083947
    20  C   -0.227829
    21  H    0.205110
    22  C   -0.227025
    23  H    0.264283
    24  C    0.428296
    25  H    0.188195
    26  H    0.206967
    27  N   -0.528916
    28  C   -0.157579
    29  H    0.178387
    30  H    0.199258
    31  C   -0.147079
    32  H    0.169548
    33  H    0.195907
    34  N   -0.755340
    35  S    1.249473
    36  O   -0.646880
    37  O   -0.670525
    38  C    0.048688
    39  C   -0.177115
    40  C   -0.187076
    41  C   -0.169924
    42  C   -0.162101
    43  C   -0.197902
    44  H    0.203180
    45  H    0.139285
    46  H    0.156407
    47  H    0.161835
    48  H    0.156757
    49  O   -0.712023
    50  H    0.481364
    51  C    0.647200
    52  O   -0.523158
    53  O   -0.645120
    54  H    0.485680
    55  C   -0.367717
    56  H    0.200595
    57  H    0.164056
    58  C   -0.067277
    59  H    0.128385
    60  H    0.158019
    61  C   -0.656586
    62  H    0.219342
    63  H    0.188025
    64  H    0.207900
    65  C   -0.287164
    66  H    0.143566
    67  H    0.166213
    68  C   -0.480376
    69  H    0.158472
    70  H    0.158529
    71  H    0.150199
    72  C   -0.337329
    73  H    0.184122
    74  H    0.170036
    75  C   -0.335722
    76  H    0.182560
    77  H    0.173263
 Sum of Mulliken charges =  -0.00000

 Dipole moment (field-independent basis, Debye):
    X=              1.5512    Y=             -0.3895    Z=             -6.5210  Tot=              6.7142
 Quadrupole moment (field-independent basis, Debye-Ang):
   XX=           -198.1338   YY=           -223.1712   ZZ=           -221.8848
   XY=            -12.0111   XZ=             -1.1744   YZ=             12.3885

 Normal termination of Gaussian 16 at Fri Feb  8 00:30:23 2019.
