 Gaussian 16, Revision A.03,
 Gaussian 16:  ES64L-G16RevA.03 25-Dec-2016

 ------------------------------------------
 #p M062X/6-31G* em=gd3 force int=ultrafine
 ------------------------------------------

 -----
 Title
 -----
 Symbolic Z-matrix:
 Charge =  0 Multiplicity = 1

                         Standard orientation:
 ---------------------------------------------------------------------
 Center     Atomic      Atomic             Coordinates (Angstroms)
 Number     Number       Type             X           Y           Z
 ---------------------------------------------------------------------
      1          6           0       -4.857251    0.484320   -0.547241
      2          6           0       -5.037915   -0.828001   -1.316108
      3          6           0       -3.703805   -1.305578   -1.901965
      4          6           0       -2.700196   -1.485396   -0.767774
      5          6           0       -2.485379   -0.151984   -0.010781
      6          6           0       -3.814061    0.346537    0.565954
      7          1           0       -3.821905   -2.243872   -2.454254
      8          1           0       -5.433901   -1.598876   -0.642037
      9          1           0       -5.767881   -0.702498   -2.121902
     10          1           0       -4.533026    1.267867   -1.245449
     11          1           0       -5.813975    0.806413   -0.123655
     12          1           0       -3.080934   -2.230358   -0.061678
     13          1           0       -2.155111    0.585753   -0.753261
     14          1           0       -4.168920   -0.351085    1.331818
     15          1           0       -3.633751    1.315325    1.044793
     16          1           0       -3.346485   -0.542973   -2.606977
     17          7           0       -1.374922   -1.976453   -1.199313
     18          6           0       -0.692626   -1.336347   -2.186736
     19          6           0       -0.679072   -2.760714   -0.333753
     20          6           0        0.658781   -1.427157   -2.313800
     21          1           0       -1.283816   -0.719152   -2.851333
     22          6           0        0.674130   -2.887066   -0.386665
     23          1           0       -1.263734   -3.232012    0.448681
     24          6           0        1.419377   -2.127317   -1.329613
     25          1           0        1.145500   -0.889810   -3.116682
     26          1           0        1.160876   -3.473644    0.379431
     27          7           0        2.745469   -2.080246   -1.294598
     28          6           0        3.485572   -2.556491   -0.115336
     29          1           0        3.346207   -3.632847    0.019509
     30          1           0        3.115794   -2.004965    0.761090
     31          6           0        3.503432   -1.043945   -2.014685
     32          1           0        3.756169   -1.397985   -3.021983
     33          1           0        2.900643   -0.133986   -2.065004
     34          7           0       -1.382911   -0.213934    0.935425
     35         16           0       -1.390341   -1.048834    2.341991
     36          8           0       -2.627342   -1.832480    2.376238
     37          8           0       -0.119126   -1.759459    2.483267
     38          6           0       -0.526039    2.644507   -0.091602
     39          6           0       -0.051544    2.064153   -1.277239
     40          6           0       -0.807552    2.129030   -2.447397
     41          6           0       -2.050156    2.761934   -2.463757
     42          6           0       -2.532412    3.337835   -1.290381
     43          6           0       -1.772807    3.277737   -0.122044
     44          1           0        0.887175    1.516548   -1.239843
     45          1           0       -0.415019    1.685504   -3.360551
     46          1           0       -2.631808    2.813496   -3.380068
     47          1           0       -3.497161    3.837733   -1.284461
     48          1           0       -2.157786    3.735752    0.787013
     49          8           0        0.739038    1.462448    1.741194
     50          1           0       -0.436673    0.087771    0.648459
     51          6           0        1.987268    0.787176    1.185665
     52          8           0        1.714493    0.188670    0.060724
     53          8           0        2.295670   -0.091538    2.254106
     54          1           0        1.589170   -0.761954    2.234306
     55          6           0        3.134957    1.825011    1.184875
     56          1           0        2.982265    2.531654    2.011061
     57          1           0        4.049978    1.272102    1.433265
     58          6           0        0.280240    2.673458    1.209463
     59          1           0       -0.376758    3.108259    1.976059
     60          1           0        1.110560    3.384677    1.086813
     61          6           0       -1.425304    0.189834    3.615712
     62          1           0       -0.534907    0.805709    3.457741
     63          1           0       -2.344146    0.768153    3.506949
     64          1           0       -1.397679   -0.324726    4.577759
     65          6           0        3.354741    2.572115   -0.128427
     66          1           0        3.591990    1.848096   -0.916906
     67          1           0        2.436096    3.069174   -0.460241
     68          6           0        4.472785    3.606402   -0.007364
     69          1           0        4.655587    4.124079   -0.954145
     70          1           0        4.221482    4.363029    0.744549
     71          1           0        5.410671    3.134627    0.306908
     72          6           0        4.925536   -2.174489   -0.436422
     73          1           0        5.537876   -2.105179    0.464422
     74          1           0        5.375327   -2.912868   -1.109806
     75          6           0        4.742423   -0.830378   -1.142385
     76          1           0        4.501558   -0.067366   -0.396804
     77          1           0        5.611884   -0.512022   -1.721440
 ---------------------------------------------------------------------

 SCF Done:  E(RM062X) =  -1991.35643485     A.U. after   15 cycles

 The electronic state is 1-A.
 Alpha  occ. eigenvalues --  -90.14737 -19.62307 -19.62174 -19.58504 -19.56649
 Alpha  occ. eigenvalues --  -19.50525 -14.85292 -14.80209 -14.76769 -10.63292
 Alpha  occ. eigenvalues --  -10.62735 -10.62234 -10.61948 -10.61056 -10.59812
 Alpha  occ. eigenvalues --  -10.58001 -10.57891 -10.57744 -10.57118 -10.56928
 Alpha  occ. eigenvalues --  -10.56893 -10.56082 -10.55866 -10.55060 -10.54967
 Alpha  occ. eigenvalues --  -10.54875 -10.54811 -10.54716 -10.54638 -10.54504
 Alpha  occ. eigenvalues --  -10.54396 -10.54331 -10.52966 -10.51145 -10.51068
 Alpha  occ. eigenvalues --  -10.49413  -8.45708  -6.37934  -6.37894  -6.37744
 Alpha  occ. eigenvalues --   -1.22524  -1.13604  -1.13044  -1.10764  -1.09083
 Alpha  occ. eigenvalues --   -1.05705  -1.02423  -0.99224  -0.95891  -0.95071
 Alpha  occ. eigenvalues --   -0.93557  -0.90268  -0.88689  -0.86405  -0.85358
 Alpha  occ. eigenvalues --   -0.84893  -0.84829  -0.83900  -0.83138  -0.83042
 Alpha  occ. eigenvalues --   -0.76673  -0.75935  -0.75695  -0.74236  -0.73202
 Alpha  occ. eigenvalues --   -0.71806  -0.68242  -0.68151  -0.67837  -0.67495
 Alpha  occ. eigenvalues --   -0.66523  -0.65453  -0.64798  -0.63470  -0.60496
 Alpha  occ. eigenvalues --   -0.60314  -0.59797  -0.59560  -0.57816  -0.57684
 Alpha  occ. eigenvalues --   -0.57283  -0.56492  -0.55815  -0.55130  -0.54317
 Alpha  occ. eigenvalues --   -0.53615  -0.52995  -0.52671  -0.52469  -0.52028
 Alpha  occ. eigenvalues --   -0.51664  -0.50857  -0.50311  -0.49928  -0.49350
 Alpha  occ. eigenvalues --   -0.49157  -0.48999  -0.48326  -0.48125  -0.47894
 Alpha  occ. eigenvalues --   -0.47751  -0.47593  -0.47134  -0.46199  -0.45918
 Alpha  occ. eigenvalues --   -0.45123  -0.44867  -0.44315  -0.43821  -0.43268
 Alpha  occ. eigenvalues --   -0.42577  -0.42233  -0.41141  -0.41062  -0.40918
 Alpha  occ. eigenvalues --   -0.40709  -0.40521  -0.39962  -0.39835  -0.39322
 Alpha  occ. eigenvalues --   -0.39207  -0.39007  -0.38439  -0.38308  -0.37855
 Alpha  occ. eigenvalues --   -0.37283  -0.36569  -0.36400  -0.36058  -0.34973
 Alpha  occ. eigenvalues --   -0.34444  -0.34190  -0.31872  -0.31239  -0.29868
 Alpha  occ. eigenvalues --   -0.28965  -0.28675  -0.27750  -0.24071  -0.23917
 Alpha virt. eigenvalues --   -0.01374   0.00430   0.03380   0.03670   0.10124
 Alpha virt. eigenvalues --    0.10645   0.11383   0.12478   0.13180   0.13247
 Alpha virt. eigenvalues --    0.14121   0.14377   0.14797   0.15400   0.15565

 Mulliken charges:
               1
     1  C   -0.306399
     2  C   -0.307685
     3  C   -0.310435
     4  C   -0.058709
     5  C    0.057415
     6  C   -0.308868
     7  H    0.175311
     8  H    0.163132
     9  H    0.166743
    10  H    0.150999
    11  H    0.164964
    12  H    0.206955
    13  H    0.175761
    14  H    0.194612
    15  H    0.163250
    16  H    0.156039
    17  N   -0.436362
    18  C    0.073049
    19  C    0.070096
    20  C   -0.205040
    21  H    0.204684
    22  C   -0.214201
    23  H    0.243319
    24  C    0.449032
    25  H    0.192511
    26  H    0.210668
    27  N   -0.521135
    28  C   -0.168184
    29  H    0.167695
    30  H    0.225092
    31  C   -0.149164
    32  H    0.161836
    33  H    0.206043
    34  N   -0.799836
    35  S    1.245397
    36  O   -0.604425
    37  O   -0.595394
    38  C    0.064258
    39  C   -0.194761
    40  C   -0.191457
    41  C   -0.172595
    42  C   -0.165191
    43  C   -0.207717
    44  H    0.226654
    45  H    0.140669
    46  H    0.155332
    47  H    0.158837
    48  H    0.152682
    49  O   -0.571414
    50  H    0.438855
    51  C    0.719144
    52  O   -0.711772
    53  O   -0.711148
    54  H    0.434535
    55  C   -0.339392
    56  H    0.144589
    57  H    0.149894
    58  C   -0.084034
    59  H    0.134614
    60  H    0.152057
    61  C   -0.664619
    62  H    0.274939
    63  H    0.199154
    64  H    0.220643
    65  C   -0.286789
    66  H    0.137436
    67  H    0.142189
    68  C   -0.474060
    69  H    0.147854
    70  H    0.150905
    71  H    0.147527
    72  C   -0.333424
    73  H    0.185754
    74  H    0.160783
    75  C   -0.340274
    76  H    0.202982
    77  H    0.167597
 Sum of Mulliken charges =  -0.00000

 Dipole moment (field-independent basis, Debye):
    X=             -3.4225    Y=             -2.0668    Z=             -5.9122  Tot=              7.1372
 Quadrupole moment (field-independent basis, Debye-Ang):
   XX=           -207.8644   YY=           -221.6904   ZZ=           -219.3825
   XY=            -13.0594   XZ=             -4.4029   YZ=             10.4593

 Normal termination of Gaussian 16 at Thu Feb  7 11:42:25 2019.
