 Gaussian 16, Revision A.03,
 Gaussian 16:  ES64L-G16RevA.03 25-Dec-2016

 ------------------------------------------
 #p M062X/6-31G* em=gd3 force int=ultrafine
 ------------------------------------------

 -----
 Title
 -----
 Symbolic Z-matrix:
 Charge =  0 Multiplicity = 1

                         Standard orientation:
 ---------------------------------------------------------------------
 Center     Atomic      Atomic             Coordinates (Angstroms)
 Number     Number       Type             X           Y           Z
 ---------------------------------------------------------------------
      1          6           0       -4.843318    0.448591   -0.515879
      2          6           0       -4.993715   -0.823295   -1.355527
      3          6           0       -3.643367   -1.248490   -1.944720
      4          6           0       -2.653812   -1.478923   -0.806601
      5          6           0       -2.468423   -0.190623    0.034082
      6          6           0       -3.817274    0.262296    0.606124
      7          1           0       -3.740053   -2.155195   -2.551791
      8          1           0       -5.388285   -1.634590   -0.729740
      9          1           0       -5.712811   -0.665924   -2.165672
     10          1           0       -4.514399    1.270686   -1.166338
     11          1           0       -5.811582    0.738820   -0.095272
     12          1           0       -3.032105   -2.271960   -0.153677
     13          1           0       -2.131549    0.588232   -0.662994
     14          1           0       -4.175127   -0.478515    1.330029
     15          1           0       -3.656890    1.207676    1.137319
     16          1           0       -3.288329   -0.440686   -2.598777
     17          7           0       -1.314842   -1.927335   -1.250556
     18          6           0       -0.644154   -1.248947   -2.215827
     19          6           0       -0.609286   -2.733242   -0.416774
     20          6           0        0.708557   -1.329664   -2.358270
     21          1           0       -1.242198   -0.610738   -2.853337
     22          6           0        0.745770   -2.855405   -0.488050
     23          1           0       -1.185549   -3.237671    0.351170
     24          6           0        1.480221   -2.070147   -1.415971
     25          1           0        1.184278   -0.761271   -3.146449
     26          1           0        1.238841   -3.469553    0.252227
     27          7           0        2.811841   -2.025827   -1.395728
     28          6           0        3.558488   -2.543747   -0.239223
     29          1           0        3.437269   -3.627169   -0.153414
     30          1           0        3.178511   -2.050460    0.666468
     31          6           0        3.566625   -0.963950   -2.084082
     32          1           0        3.830017   -1.289917   -3.097596
     33          1           0        2.962443   -0.054625   -2.122916
     34          7           0       -1.369434   -0.322436    0.974991
     35         16           0       -1.408945   -1.221061    2.326908
     36          8           0       -2.595250   -2.083342    2.280969
     37          8           0       -0.103884   -1.875147    2.490924
     38          6           0       -0.657763    2.741315   -0.066419
     39          6           0       -0.110353    2.099210   -1.186115
     40          6           0       -0.772695    2.145626   -2.411905
     41          6           0       -2.003896    2.792464   -2.532927
     42          6           0       -2.564053    3.409028   -1.416058
     43          6           0       -1.888125    3.385506   -0.197274
     44          1           0        0.813279    1.533045   -1.067953
     45          1           0       -0.326340    1.671550   -3.284402
     46          1           0       -2.519792    2.821662   -3.488352
     47          1           0       -3.524951    3.909925   -1.491550
     48          1           0       -2.325355    3.864928    0.676001
     49          8           0        0.460952    1.411025    1.622605
     50          1           0       -0.570232    0.412539    1.046925
     51          6           0        2.193321    0.662484    1.181780
     52          8           0        2.030500    0.160237    0.058418
     53          8           0        2.221027   -0.132413    2.290754
     54          1           0        1.533577   -0.818873    2.175588
     55          6           0        3.082121    1.879245    1.387600
     56          1           0        2.696301    2.490653    2.209737
     57          1           0        4.047935    1.479717    1.729294
     58          6           0        0.045223    2.680886    1.283367
     59          1           0       -0.654716    3.079529    2.042433
     60          1           0        0.891248    3.395151    1.268453
     61          6           0       -1.530125   -0.044804    3.658325
     62          1           0       -0.687168    0.639542    3.512368
     63          1           0       -2.485447    0.476023    3.575703
     64          1           0       -1.455459   -0.585694    4.602849
     65          6           0        3.300517    2.704174    0.122619
     66          1           0        3.678210    2.046387   -0.669031
     67          1           0        2.346421    3.093814   -0.249678
     68          6           0        4.273348    3.857778    0.355698
     69          1           0        4.452078    4.427025   -0.561535
     70          1           0        3.886003    4.551252    1.110105
     71          1           0        5.239818    3.487395    0.715468
     72          6           0        4.994010   -2.122637   -0.532714
     73          1           0        5.597278   -2.074190    0.375760
     74          1           0        5.462655   -2.830234   -1.225248
     75          6           0        4.798692   -0.759733   -1.198946
     76          1           0        4.548544   -0.016999   -0.436147
     77          1           0        5.667833   -0.417982   -1.764713
 ---------------------------------------------------------------------

 SCF Done:  E(RM062X) =  -1991.35646865     A.U. after   15 cycles

 The electronic state is 1-A.
 Alpha  occ. eigenvalues --  -90.13753 -19.61611 -19.61319 -19.60082 -19.55227
 Alpha  occ. eigenvalues --  -19.54669 -14.85315 -14.80434 -14.74708 -10.63900
 Alpha  occ. eigenvalues --  -10.63447 -10.62783 -10.62260 -10.60761 -10.59142
 Alpha  occ. eigenvalues --  -10.58461 -10.58368 -10.58003 -10.57195 -10.56607
 Alpha  occ. eigenvalues --  -10.55589 -10.55553 -10.55323 -10.55264 -10.54838
 Alpha  occ. eigenvalues --  -10.54669 -10.54644 -10.54567 -10.54530 -10.54181
 Alpha  occ. eigenvalues --  -10.53952 -10.53558 -10.52960 -10.51810 -10.51654
 Alpha  occ. eigenvalues --  -10.51136  -8.44753  -6.36974  -6.36919  -6.36811
 Alpha  occ. eigenvalues --   -1.21548  -1.15022  -1.13539  -1.09785  -1.09288
 Alpha  occ. eigenvalues --   -1.05228  -1.03839  -1.00964  -0.95683  -0.94621
 Alpha  occ. eigenvalues --   -0.93441  -0.90271  -0.88776  -0.86456  -0.85819
 Alpha  occ. eigenvalues --   -0.84638  -0.84321  -0.83887  -0.82878  -0.82397
 Alpha  occ. eigenvalues --   -0.77281  -0.76712  -0.75819  -0.72634  -0.72183
 Alpha  occ. eigenvalues --   -0.71544  -0.68403  -0.68256  -0.67742  -0.67148
 Alpha  occ. eigenvalues --   -0.66694  -0.65034  -0.64308  -0.63365  -0.60921
 Alpha  occ. eigenvalues --   -0.60406  -0.60020  -0.59088  -0.58036  -0.57461
 Alpha  occ. eigenvalues --   -0.56926  -0.56376  -0.55208  -0.54418  -0.53835
 Alpha  occ. eigenvalues --   -0.53394  -0.52493  -0.52358  -0.52235  -0.51645
 Alpha  occ. eigenvalues --   -0.51460  -0.51264  -0.50861  -0.50152  -0.49870
 Alpha  occ. eigenvalues --   -0.49488  -0.48780  -0.48359  -0.48091  -0.47978
 Alpha  occ. eigenvalues --   -0.47594  -0.47215  -0.47126  -0.46454  -0.46132
 Alpha  occ. eigenvalues --   -0.45388  -0.45063  -0.44674  -0.43758  -0.43258
 Alpha  occ. eigenvalues --   -0.42397  -0.42334  -0.41560  -0.41457  -0.41145
 Alpha  occ. eigenvalues --   -0.41006  -0.40457  -0.40001  -0.39972  -0.39548
 Alpha  occ. eigenvalues --   -0.39438  -0.38781  -0.38337  -0.38031  -0.37757
 Alpha  occ. eigenvalues --   -0.37535  -0.37292  -0.36921  -0.35867  -0.35488
 Alpha  occ. eigenvalues --   -0.34845  -0.34117  -0.32760  -0.30208  -0.29454
 Alpha  occ. eigenvalues --   -0.28709  -0.28316  -0.28008  -0.26212  -0.24768
 Alpha virt. eigenvalues --   -0.01451   0.00363   0.03629   0.04266   0.10217
 Alpha virt. eigenvalues --    0.10970   0.11529   0.12011   0.13343   0.13426
 Alpha virt. eigenvalues --    0.13986   0.14399   0.14721   0.15349   0.15394

 Mulliken charges:
               1
     1  C   -0.306885
     2  C   -0.307086
     3  C   -0.311624
     4  C   -0.064048
     5  C    0.068629
     6  C   -0.307130
     7  H    0.173088
     8  H    0.162539
     9  H    0.165353
    10  H    0.152588
    11  H    0.163277
    12  H    0.209127
    13  H    0.171087
    14  H    0.188690
    15  H    0.161063
    16  H    0.156709
    17  N   -0.432957
    18  C    0.088511
    19  C    0.088723
    20  C   -0.217617
    21  H    0.205829
    22  C   -0.224969
    23  H    0.248761
    24  C    0.437931
    25  H    0.192463
    26  H    0.209280
    27  N   -0.519889
    28  C   -0.161505
    29  H    0.172063
    30  H    0.209664
    31  C   -0.146661
    32  H    0.165455
    33  H    0.202270
    34  N   -0.818534
    35  S    1.242067
    36  O   -0.610427
    37  O   -0.612164
    38  C    0.055783
    39  C   -0.197293
    40  C   -0.190982
    41  C   -0.175367
    42  C   -0.162899
    43  C   -0.206508
    44  H    0.219087
    45  H    0.136326
    46  H    0.153392
    47  H    0.157534
    48  H    0.153844
    49  O   -0.670029
    50  H    0.454464
    51  C    0.678515
    52  O   -0.593435
    53  O   -0.667799
    54  H    0.454898
    55  C   -0.343175
    56  H    0.173387
    57  H    0.152447
    58  C   -0.043985
    59  H    0.102159
    60  H    0.123950
    61  C   -0.670841
    62  H    0.267234
    63  H    0.198086
    64  H    0.218467
    65  C   -0.289755
    66  H    0.141667
    67  H    0.155954
    68  C   -0.477411
    69  H    0.152814
    70  H    0.154696
    71  H    0.148568
    72  C   -0.334707
    73  H    0.184847
    74  H    0.164384
    75  C   -0.336784
    76  H    0.195854
    77  H    0.168946
 Sum of Mulliken charges =  -0.00000

 Dipole moment (field-independent basis, Debye):
    X=             -1.5203    Y=             -2.0356    Z=             -6.0464  Tot=              6.5585
 Quadrupole moment (field-independent basis, Debye-Ang):
   XX=           -203.2600   YY=           -225.0850   ZZ=           -219.1977
   XY=            -12.2931   XZ=             -2.9843   YZ=             10.4833

 Normal termination of Gaussian 16 at Thu Feb  7 19:02:00 2019.
