 Gaussian 16, Revision A.03,
 Gaussian 16:  ES64L-G16RevA.03 25-Dec-2016

 ------------------------------------------
 #p M062X/6-31G* em=gd3 force int=ultrafine
 ------------------------------------------

 -----
 Title
 -----
 Symbolic Z-matrix:
 Charge =  0 Multiplicity = 1

                         Standard orientation:
 ---------------------------------------------------------------------
 Center     Atomic      Atomic             Coordinates (Angstroms)
 Number     Number       Type             X           Y           Z
 ---------------------------------------------------------------------
      1          6           0       -4.862451    0.518563   -0.549679
      2          6           0       -5.033380   -0.771239   -1.357401
      3          6           0       -3.691710   -1.231971   -1.939664
      4          6           0       -2.701538   -1.449929   -0.799896
      5          6           0       -2.501324   -0.144578    0.007589
      6          6           0       -3.837881    0.343646    0.574496
      7          1           0       -3.803546   -2.151911   -2.523237
      8          1           0       -5.437969   -1.560380   -0.710110
      9          1           0       -5.752835   -0.622886   -2.168690
     10          1           0       -4.522956    1.320033   -1.220018
     11          1           0       -5.824653    0.833156   -0.133048
     12          1           0       -3.089994   -2.220393   -0.125867
     13          1           0       -2.147545    0.614868   -0.701695
     14          1           0       -4.205400   -0.373975    1.315903
     15          1           0       -3.659565    1.297535    1.083776
     16          1           0       -3.325033   -0.447421   -2.615146
     17          7           0       -1.370886   -1.925717   -1.233519
     18          6           0       -0.684473   -1.269157   -2.206737
     19          6           0       -0.678217   -2.730910   -0.385255
     20          6           0        0.666214   -1.367040   -2.338615
     21          1           0       -1.271693   -0.635340   -2.858764
     22          6           0        0.674139   -2.866782   -0.443936
     23          1           0       -1.265089   -3.219805    0.384574
     24          6           0        1.425064   -2.097277   -1.375055
     25          1           0        1.154751   -0.816588   -3.131549
     26          1           0        1.156697   -3.477063    0.306226
     27          7           0        2.752445   -2.071542   -1.348575
     28          6           0        3.488061   -2.579172   -0.179276
     29          1           0        3.344111   -3.657936   -0.070306
     30          1           0        3.118244   -2.047982    0.709169
     31          6           0        3.525201   -1.032615   -2.051293
     32          1           0        3.785061   -1.379357   -3.059284
     33          1           0        2.932925   -0.116232   -2.096854
     34          7           0       -1.418472   -0.259767    0.968097
     35         16           0       -1.435535   -1.134143    2.344819
     36          8           0       -2.668944   -1.923586    2.337996
     37          8           0       -0.162467   -1.842400    2.479502
     38          6           0       -0.529764    2.675895   -0.068287
     39          6           0       -0.041201    2.073344   -1.235695
     40          6           0       -0.769703    2.152954   -2.422236
     41          6           0       -1.999787    2.809386   -2.464097
     42          6           0       -2.498153    3.397224   -1.302943
     43          6           0       -1.763447    3.331048   -0.119448
     44          1           0        0.885910    1.503522   -1.170638
     45          1           0       -0.368468    1.700644   -3.327150
     46          1           0       -2.561775    2.868632   -3.392058
     47          1           0       -3.456169    3.909552   -1.318745
     48          1           0       -2.157873    3.794557    0.782714
     49          8           0        0.685183    1.373601    1.658989
     50          1           0       -0.529131    0.250788    0.838289
     51          6           0        2.043979    0.743203    1.175013
     52          8           0        1.887238    0.184092    0.024735
     53          8           0        2.271007   -0.143798    2.250991
     54          1           0        1.573554   -0.820106    2.176079
     55          6           0        3.131250    1.830374    1.291816
     56          1           0        2.906033    2.501762    2.130152
     57          1           0        4.054354    1.304649    1.568752
     58          6           0        0.251852    2.637190    1.241193
     59          1           0       -0.410223    3.027656    2.029263
     60          1           0        1.092293    3.343236    1.177920
     61          6           0       -1.472388    0.073395    3.650045
     62          1           0       -0.585611    0.697081    3.499409
     63          1           0       -2.393899    0.650706    3.561526
     64          1           0       -1.430135   -0.458387    4.601892
     65          6           0        3.379761    2.616403    0.006564
     66          1           0        3.674640    1.915279   -0.782490
     67          1           0        2.455171    3.082124   -0.354743
     68          6           0        4.451061    3.688649    0.190910
     69          1           0        4.649400    4.229880   -0.739429
     70          1           0        4.144098    4.421404    0.945700
     71          1           0        5.393495    3.245082    0.531181
     72          6           0        4.931038   -2.194316   -0.483215
     73          1           0        5.536586   -2.144355    0.423607
     74          1           0        5.384460   -2.920682   -1.167109
     75          6           0        4.756470   -0.836571   -1.164569
     76          1           0        4.504653   -0.087825   -0.408262
     77          1           0        5.631914   -0.509617   -1.729736
 ---------------------------------------------------------------------

 SCF Done:  E(RM062X) =  -1991.35567945     A.U. after   15 cycles

 The electronic state is 1-A.
 Alpha  occ. eigenvalues --  -90.14764 -19.62385 -19.62106 -19.58619 -19.56990
 Alpha  occ. eigenvalues --  -19.50591 -14.85184 -14.80031 -14.76563 -10.63152
 Alpha  occ. eigenvalues --  -10.62610 -10.62188 -10.62126 -10.61085 -10.59884
 Alpha  occ. eigenvalues --  -10.57759 -10.57753 -10.57611 -10.57045 -10.56969
 Alpha  occ. eigenvalues --  -10.56893 -10.56353 -10.55877 -10.55121 -10.55090
 Alpha  occ. eigenvalues --  -10.55040 -10.54881 -10.54685 -10.54685 -10.54644
 Alpha  occ. eigenvalues --  -10.54469 -10.54048 -10.53124 -10.51097 -10.50986
 Alpha  occ. eigenvalues --  -10.49549  -8.45734  -6.37962  -6.37912  -6.37782
 Alpha  occ. eigenvalues --   -1.22550  -1.13460  -1.12855  -1.10756  -1.08870
 Alpha  occ. eigenvalues --   -1.05944  -1.02463  -0.99926  -0.95836  -0.95222
 Alpha  occ. eigenvalues --   -0.93472  -0.90120  -0.88568  -0.86540  -0.85353
 Alpha  occ. eigenvalues --   -0.84939  -0.84854  -0.83701  -0.83310  -0.83069
 Alpha  occ. eigenvalues --   -0.76566  -0.75972  -0.75551  -0.74259  -0.73270
 Alpha  occ. eigenvalues --   -0.71762  -0.68232  -0.68146  -0.67750  -0.67491
 Alpha  occ. eigenvalues --   -0.66437  -0.65492  -0.64874  -0.63339  -0.60512
 Alpha  occ. eigenvalues --   -0.60383  -0.59954  -0.59426  -0.57936  -0.57690
 Alpha  occ. eigenvalues --   -0.57153  -0.56397  -0.55678  -0.55101  -0.54385
 Alpha  occ. eigenvalues --   -0.53561  -0.53083  -0.52679  -0.52477  -0.52175
 Alpha  occ. eigenvalues --   -0.51689  -0.50801  -0.50139  -0.49917  -0.49352
 Alpha  occ. eigenvalues --   -0.49240  -0.48948  -0.48484  -0.48180  -0.48009
 Alpha  occ. eigenvalues --   -0.47728  -0.47632  -0.47165  -0.46160  -0.45805
 Alpha  occ. eigenvalues --   -0.45271  -0.45165  -0.44388  -0.43998  -0.43195
 Alpha  occ. eigenvalues --   -0.42473  -0.42325  -0.41172  -0.40874  -0.40759
 Alpha  occ. eigenvalues --   -0.40675  -0.40399  -0.40116  -0.39835  -0.39404
 Alpha  occ. eigenvalues --   -0.39160  -0.38888  -0.38677  -0.38326  -0.37808
 Alpha  occ. eigenvalues --   -0.37408  -0.36502  -0.36437  -0.36065  -0.35020
 Alpha  occ. eigenvalues --   -0.34536  -0.34283  -0.31763  -0.31361  -0.30023
 Alpha  occ. eigenvalues --   -0.29283  -0.28829  -0.27756  -0.24240  -0.23950
 Alpha virt. eigenvalues --   -0.01225   0.00581   0.03207   0.03555   0.10149
 Alpha virt. eigenvalues --    0.10590   0.11332   0.12564   0.13170   0.13311
 Alpha virt. eigenvalues --    0.14140   0.14435   0.15045   0.15520   0.15547

 Mulliken charges:
               1
     1  C   -0.306438
     2  C   -0.307801
     3  C   -0.311025
     4  C   -0.060195
     5  C    0.064496
     6  C   -0.306902
     7  H    0.175542
     8  H    0.163268
     9  H    0.166788
    10  H    0.151088
    11  H    0.164972
    12  H    0.207099
    13  H    0.174830
    14  H    0.192901
    15  H    0.160847
    16  H    0.156279
    17  N   -0.437444
    18  C    0.078851
    19  C    0.079486
    20  C   -0.208913
    21  H    0.202943
    22  C   -0.220494
    23  H    0.243299
    24  C    0.449571
    25  H    0.192013
    26  H    0.209727
    27  N   -0.518393
    28  C   -0.165820
    29  H    0.166915
    30  H    0.221677
    31  C   -0.145690
    32  H    0.160324
    33  H    0.205492
    34  N   -0.809371
    35  S    1.238579
    36  O   -0.603243
    37  O   -0.591330
    38  C    0.050238
    39  C   -0.196284
    40  C   -0.192479
    41  C   -0.172308
    42  C   -0.165409
    43  C   -0.205045
    44  H    0.233614
    45  H    0.141794
    46  H    0.156234
    47  H    0.159818
    48  H    0.154170
    49  O   -0.596115
    50  H    0.449251
    51  C    0.716035
    52  O   -0.692167
    53  O   -0.703626
    54  H    0.432183
    55  C   -0.340482
    56  H    0.143486
    57  H    0.150741
    58  C   -0.081270
    59  H    0.131497
    60  H    0.156399
    61  C   -0.666134
    62  H    0.268391
    63  H    0.200281
    64  H    0.222774
    65  C   -0.285230
    66  H    0.142463
    67  H    0.140248
    68  C   -0.474773
    69  H    0.148133
    70  H    0.149348
    71  H    0.148362
    72  C   -0.333977
    73  H    0.184486
    74  H    0.159909
    75  C   -0.338323
    76  H    0.204872
    77  H    0.164967
 Sum of Mulliken charges =  -0.00000

 Dipole moment (field-independent basis, Debye):
    X=             -3.6003    Y=             -1.5823    Z=             -5.7103  Tot=              6.9335
 Quadrupole moment (field-independent basis, Debye-Ang):
   XX=           -208.6535   YY=           -222.3411   ZZ=           -218.3426
   XY=            -13.3634   XZ=             -4.0914   YZ=             10.7708

 Normal termination of Gaussian 16 at Thu Feb  7 10:15:22 2019.
