 Gaussian 16, Revision A.03,
 Gaussian 16:  ES64L-G16RevA.03 25-Dec-2016

 ------------------------------------------
 #p M062X/6-31G* em=gd3 force int=ultrafine
 ------------------------------------------

 -----
 Title
 -----
 Symbolic Z-matrix:
 Charge =  0 Multiplicity = 1

                         Standard orientation:
 ---------------------------------------------------------------------
 Center     Atomic      Atomic             Coordinates (Angstroms)
 Number     Number       Type             X           Y           Z
 ---------------------------------------------------------------------
      1          6           0       -4.869767    0.090108   -0.430312
      2          6           0       -4.917555   -1.198042   -1.257659
      3          6           0       -3.538897   -1.520040   -1.846815
      4          6           0       -2.532810   -1.641759   -0.706870
      5          6           0       -2.429503   -0.314785    0.098278
      6          6           0       -3.814971    0.009517    0.677450
      7          1           0       -3.565277   -2.444490   -2.435154
      8          1           0       -5.241612   -2.032297   -0.621689
      9          1           0       -5.650258   -1.109256   -2.066553
     10          1           0       -4.621554    0.930390   -1.093991
     11          1           0       -5.856911    0.298704   -0.004162
     12          1           0       -2.848187   -2.438562   -0.027891
     13          1           0       -2.214005    0.462229   -0.650308
     14          1           0       -4.088360   -0.758036    1.412695
     15          1           0       -3.740986    0.968675    1.204012
     16          1           0       -3.255942   -0.699428   -2.520476
     17          7           0       -1.169048   -2.014180   -1.149588
     18          6           0       -0.555505   -1.335542   -2.146163
     19          6           0       -0.415789   -2.765121   -0.311829
     20          6           0        0.798042   -1.366704   -2.322643
     21          1           0       -1.197629   -0.742397   -2.784470
     22          6           0        0.943192   -2.841229   -0.421712
     23          1           0       -0.952354   -3.259382    0.490934
     24          6           0        1.617853   -2.058664   -1.388646
     25          1           0        1.230610   -0.807241   -3.141594
     26          1           0        1.478450   -3.414555    0.322126
     27          7           0        2.954301   -1.962597   -1.404728
     28          6           0        3.749682   -2.452352   -0.271896
     29          1           0        3.695687   -3.542848   -0.203069
     30          1           0        3.356617   -2.015240    0.656774
     31          6           0        3.648822   -0.887062   -2.128522
     32          1           0        3.908694   -1.219496   -3.141021
     33          1           0        3.005631   -0.004862   -2.183987
     34          7           0       -1.303890   -0.274264    1.008843
     35         16           0       -1.266112   -1.209564    2.280763
     36          8           0       -2.262331   -2.303886    2.258341
     37          8           0        0.131961   -1.661958    2.518859
     38          6           0       -1.101015    2.860302   -0.169949
     39          6           0       -0.388533    2.183268   -1.165804
     40          6           0       -0.928527    2.059988   -2.444099
     41          6           0       -2.193929    2.570832   -2.734642
     42          6           0       -2.916729    3.220136   -1.736174
     43          6           0       -2.366864    3.365615   -0.464549
     44          1           0        0.564160    1.717846   -0.918897
     45          1           0       -0.358717    1.555018   -3.220923
     46          1           0       -2.614858    2.464911   -3.730138
     47          1           0       -3.908266    3.611756   -1.943942
     48          1           0       -2.931745    3.868498    0.317421
     49          8           0        0.230453    1.913268    1.625499
     50          1           0       -0.283722    1.097262    1.351699
     51          6           0        2.438348    0.650383    1.216972
     52          8           0        2.117832    0.210958    0.125903
     53          8           0        2.212771    0.020834    2.358339
     54          1           0        1.511785   -0.679338    2.245513
     55          6           0        3.193414    1.945147    1.406295
     56          1           0        2.711134    2.475638    2.232594
     57          1           0        4.213031    1.701064    1.737181
     58          6           0       -0.515376    3.023258    1.217227
     59          1           0       -1.330474    3.254319    1.923205
     60          1           0        0.164960    3.887235    1.227678
     61          6           0       -1.637644   -0.176103    3.694770
     62          1           0       -0.932547    0.658415    3.673528
     63          1           0       -2.663687    0.183194    3.594392
     64          1           0       -1.519932   -0.765358    4.605153
     65          6           0        3.216388    2.797169    0.143907
     66          1           0        3.642511    2.216850   -0.683527
     67          1           0        2.182491    3.019310   -0.143382
     68          6           0        3.997400    4.093901    0.333148
     69          1           0        4.013869    4.686164   -0.586345
     70          1           0        3.549127    4.709101    1.120382
     71          1           0        5.034873    3.891968    0.621318
     72          6           0        5.156686   -1.946001   -0.577294
     73          1           0        5.757020   -1.842930    0.328842
     74          1           0        5.668628   -2.638314   -1.253484
     75          6           0        4.889974   -0.610286   -1.275490
     76          1           0        4.638551    0.150884   -0.531402
     77          1           0        5.733631   -0.254416   -1.870365
 ---------------------------------------------------------------------

 SCF Done:  E(RM062X) =  -1991.38889340     A.U. after   15 cycles

 The electronic state is 1-A.
 Alpha  occ. eigenvalues --  -90.10351 -19.63376 -19.60088 -19.59227 -19.58564
 Alpha  occ. eigenvalues --  -19.58344 -14.84800 -14.80499 -14.69380 -10.65476
 Alpha  occ. eigenvalues --  -10.63227 -10.62402 -10.61505 -10.59135 -10.59058
 Alpha  occ. eigenvalues --  -10.59055 -10.57822 -10.57419 -10.56816 -10.56656
 Alpha  occ. eigenvalues --  -10.56034 -10.55747 -10.55523 -10.54975 -10.54919
 Alpha  occ. eigenvalues --  -10.54868 -10.54592 -10.54552 -10.54498 -10.53783
 Alpha  occ. eigenvalues --  -10.53691 -10.53562 -10.53179 -10.53094 -10.52621
 Alpha  occ. eigenvalues --  -10.52614  -8.41315  -6.33553  -6.33460  -6.33380
 Alpha  occ. eigenvalues --   -1.19122  -1.17877  -1.12935  -1.10267  -1.09853
 Alpha  occ. eigenvalues --   -1.09136  -1.06144  -0.97534  -0.95265  -0.94794
 Alpha  occ. eigenvalues --   -0.92184  -0.89850  -0.88579  -0.88085  -0.85020
 Alpha  occ. eigenvalues --   -0.84941  -0.83652  -0.83505  -0.83301  -0.80178
 Alpha  occ. eigenvalues --   -0.79160  -0.76347  -0.75653  -0.74680  -0.70938
 Alpha  occ. eigenvalues --   -0.70194  -0.69104  -0.68712  -0.68356  -0.68014
 Alpha  occ. eigenvalues --   -0.65816  -0.64726  -0.63938  -0.63426  -0.61618
 Alpha  occ. eigenvalues --   -0.60264  -0.59389  -0.58990  -0.58353  -0.56165
 Alpha  occ. eigenvalues --   -0.55450  -0.55167  -0.55065  -0.54102  -0.53693
 Alpha  occ. eigenvalues --   -0.53441  -0.53071  -0.52421  -0.51958  -0.51715
 Alpha  occ. eigenvalues --   -0.51132  -0.50987  -0.50610  -0.50145  -0.49830
 Alpha  occ. eigenvalues --   -0.49594  -0.49499  -0.48825  -0.48345  -0.47994
 Alpha  occ. eigenvalues --   -0.47786  -0.47172  -0.46979  -0.46971  -0.45926
 Alpha  occ. eigenvalues --   -0.45800  -0.45239  -0.43948  -0.43649  -0.43423
 Alpha  occ. eigenvalues --   -0.42769  -0.42499  -0.42231  -0.41948  -0.41892
 Alpha  occ. eigenvalues --   -0.41157  -0.40859  -0.40559  -0.39909  -0.39534
 Alpha  occ. eigenvalues --   -0.39363  -0.39214  -0.38795  -0.38383  -0.37882
 Alpha  occ. eigenvalues --   -0.37317  -0.36221  -0.35859  -0.35353  -0.35118
 Alpha  occ. eigenvalues --   -0.34381  -0.33107  -0.32070  -0.31706  -0.31498
 Alpha  occ. eigenvalues --   -0.29859  -0.28884  -0.28317  -0.27455  -0.25397
 Alpha virt. eigenvalues --   -0.01024   0.00653   0.03280   0.03786   0.09068
 Alpha virt. eigenvalues --    0.10156   0.10911   0.11805   0.12985   0.13503
 Alpha virt. eigenvalues --    0.13866   0.14256   0.15080   0.15489   0.15772

 Mulliken charges:
               1
     1  C   -0.303918
     2  C   -0.304180
     3  C   -0.309659
     4  C   -0.073321
     5  C    0.062731
     6  C   -0.305102
     7  H    0.166051
     8  H    0.160939
     9  H    0.159129
    10  H    0.146198
    11  H    0.156689
    12  H    0.212720
    13  H    0.141465
    14  H    0.179378
    15  H    0.149532
    16  H    0.150563
    17  N   -0.424312
    18  C    0.099860
    19  C    0.083911
    20  C   -0.227741
    21  H    0.204984
    22  C   -0.226848
    23  H    0.264190
    24  C    0.428174
    25  H    0.188143
    26  H    0.207070
    27  N   -0.528730
    28  C   -0.157772
    29  H    0.178367
    30  H    0.199269
    31  C   -0.146952
    32  H    0.169560
    33  H    0.195681
    34  N   -0.755835
    35  S    1.249532
    36  O   -0.646559
    37  O   -0.670330
    38  C    0.048685
    39  C   -0.176986
    40  C   -0.187178
    41  C   -0.169855
    42  C   -0.161975
    43  C   -0.198098
    44  H    0.203709
    45  H    0.139197
    46  H    0.156414
    47  H    0.161865
    48  H    0.156962
    49  O   -0.712817
    50  H    0.481771
    51  C    0.648694
    52  O   -0.522921
    53  O   -0.645654
    54  H    0.485702
    55  C   -0.368186
    56  H    0.200971
    57  H    0.164212
    58  C   -0.066515
    59  H    0.128161
    60  H    0.156714
    61  C   -0.657103
    62  H    0.219980
    63  H    0.187891
    64  H    0.207742
    65  C   -0.287327
    66  H    0.143834
    67  H    0.165342
    68  C   -0.480348
    69  H    0.158578
    70  H    0.158476
    71  H    0.150441
    72  C   -0.337272
    73  H    0.184194
    74  H    0.170013
    75  C   -0.335780
    76  H    0.182380
    77  H    0.173213
 Sum of Mulliken charges =  -0.00000

 Dipole moment (field-independent basis, Debye):
    X=              1.5445    Y=             -0.3735    Z=             -6.5383  Tot=              6.7286
 Quadrupole moment (field-independent basis, Debye-Ang):
   XX=           -198.2993   YY=           -223.0022   ZZ=           -222.0023
   XY=            -11.9426   XZ=             -1.0273   YZ=             12.4292

 Normal termination of Gaussian 16 at Fri Feb  8 00:13:56 2019.
