 Gaussian 16, Revision A.03,
 Gaussian 16:  ES64L-G16RevA.03 25-Dec-2016

 ------------------------------------------
 #p M062X/6-31G* em=gd3 force int=ultrafine
 ------------------------------------------

 -----
 Title
 -----
 Symbolic Z-matrix:
 Charge =  0 Multiplicity = 1

                         Standard orientation:
 ---------------------------------------------------------------------
 Center     Atomic      Atomic             Coordinates (Angstroms)
 Number     Number       Type             X           Y           Z
 ---------------------------------------------------------------------
      1          6           0       -4.863898    0.496217   -0.555565
      2          6           0       -5.038066   -0.809222   -1.337307
      3          6           0       -3.699519   -1.280251   -1.918452
      4          6           0       -2.702879   -1.471843   -0.779840
      5          6           0       -2.497475   -0.147671   -0.004833
      6          6           0       -3.830535    0.346662    0.564591
      7          1           0       -3.813388   -2.212666   -2.481463
      8          1           0       -5.437901   -1.586208   -0.672586
      9          1           0       -5.762586   -0.677249   -2.146915
     10          1           0       -4.532366    1.285696   -1.243734
     11          1           0       -5.823876    0.815707   -0.137536
     12          1           0       -3.086895   -2.226241   -0.085497
     13          1           0       -2.156559    0.598039   -0.734523
     14          1           0       -4.191243   -0.357788    1.321581
     15          1           0       -3.652254    1.310534    1.054221
     16          1           0       -3.337869   -0.510014   -2.612856
     17          7           0       -1.374160   -1.955999   -1.209045
     18          6           0       -0.689535   -1.312338   -2.192493
     19          6           0       -0.680209   -2.746819   -0.348079
     20          6           0        0.661498   -1.407728   -2.321310
     21          1           0       -1.278532   -0.689799   -2.853918
     22          6           0        0.672538   -2.878029   -0.402695
     23          1           0       -1.266209   -3.223191    0.430229
     24          6           0        1.420916   -2.117937   -1.343292
     25          1           0        1.149449   -0.867652   -3.121649
     26          1           0        1.157102   -3.472810    0.358488
     27          7           0        2.747549   -2.081509   -1.311998
     28          6           0        3.484983   -2.568105   -0.135022
     29          1           0        3.343287   -3.645186   -0.008265
     30          1           0        3.114947   -2.022322    0.744690
     31          6           0        3.513208   -1.047192   -2.027840
     32          1           0        3.770370   -1.402364   -3.033612
     33          1           0        2.915309   -0.134458   -2.080289
     34          7           0       -1.406804   -0.225989    0.951632
     35         16           0       -1.412836   -1.074302    2.347415
     36          8           0       -2.649529   -1.858392    2.368315
     37          8           0       -0.141212   -1.784588    2.484680
     38          6           0       -0.525005    2.655081   -0.083962
     39          6           0       -0.047107    2.065830   -1.263270
     40          6           0       -0.794870    2.136451   -2.438507
     41          6           0       -2.032465    2.779023   -2.462608
     42          6           0       -2.518708    3.360010   -1.293125
     43          6           0       -1.766653    3.297391   -0.120230
     44          1           0        0.887589    1.509804   -1.215933
     45          1           0       -0.400736    1.689540   -3.349269
     46          1           0       -2.608232    2.833699   -3.382430
     47          1           0       -3.480755    3.865095   -1.294081
     48          1           0       -2.153421    3.757953    0.786776
     49          8           0        0.722088    1.423744    1.707371
     50          1           0       -0.476018    0.156142    0.716951
     51          6           0        2.014632    0.771149    1.176844
     52          8           0        1.789076    0.188943    0.039533
     53          8           0        2.293223   -0.112396    2.247963
     54          1           0        1.586897   -0.782241    2.209230
     55          6           0        3.139198    1.829874    1.223292
     56          1           0        2.957655    2.524751    2.053473
     57          1           0        4.057371    1.287874    1.484281
     58          6           0        0.274156    2.657004    1.219301
     59          1           0       -0.382946    3.075315    1.995719
     60          1           0        1.109002    3.365909    1.118172
     61          6           0       -1.444639    0.155095    3.630551
     62          1           0       -0.554986    0.772265    3.472074
     63          1           0       -2.364026    0.733882    3.529730
     64          1           0       -1.410214   -0.363924    4.589852
     65          6           0        3.371257    2.589096   -0.080906
     66          1           0        3.623305    1.870435   -0.869376
     67          1           0        2.451843    3.079234   -0.421807
     68          6           0        4.478838    3.631506    0.059283
     69          1           0        4.666935    4.156391   -0.882487
     70          1           0        4.214325    4.381419    0.813313
     71          1           0        5.417162    3.164719    0.379457
     72          6           0        4.926576   -2.186008   -0.448678
     73          1           0        5.534986   -2.122067    0.455276
     74          1           0        5.378729   -2.921347   -1.123792
     75          6           0        4.747687   -0.838155   -1.148385
     76          1           0        4.500943   -0.079168   -0.400627
     77          1           0        5.620379   -0.517447   -1.721311
 ---------------------------------------------------------------------

 SCF Done:  E(RM062X) =  -1991.35600439     A.U. after   15 cycles

 The electronic state is 1-A.
 Alpha  occ. eigenvalues --  -90.14798 -19.62369 -19.62191 -19.58530 -19.56757
 Alpha  occ. eigenvalues --  -19.50473 -14.85263 -14.80129 -14.76793 -10.63234
 Alpha  occ. eigenvalues --  -10.62691 -10.62197 -10.62004 -10.61092 -10.59880
 Alpha  occ. eigenvalues --  -10.57883 -10.57836 -10.57670 -10.57061 -10.56963
 Alpha  occ. eigenvalues --  -10.56913 -10.56207 -10.55887 -10.55087 -10.55035
 Alpha  occ. eigenvalues --  -10.54948 -10.54789 -10.54725 -10.54674 -10.54580
 Alpha  occ. eigenvalues --  -10.54428 -10.54195 -10.53023 -10.51104 -10.51005
 Alpha  occ. eigenvalues --  -10.49442  -8.45766  -6.37994  -6.37949  -6.37806
 Alpha  occ. eigenvalues --   -1.22580  -1.13554  -1.12934  -1.10804  -1.08986
 Alpha  occ. eigenvalues --   -1.05757  -1.02511  -0.99444  -0.95885  -0.95136
 Alpha  occ. eigenvalues --   -0.93530  -0.90212  -0.88641  -0.86500  -0.85326
 Alpha  occ. eigenvalues --   -0.84909  -0.84861  -0.83802  -0.83208  -0.83080
 Alpha  occ. eigenvalues --   -0.76637  -0.75919  -0.75636  -0.74242  -0.73274
 Alpha  occ. eigenvalues --   -0.71803  -0.68215  -0.68173  -0.67794  -0.67513
 Alpha  occ. eigenvalues --   -0.66475  -0.65483  -0.64816  -0.63418  -0.60491
 Alpha  occ. eigenvalues --   -0.60320  -0.59925  -0.59498  -0.57874  -0.57690
 Alpha  occ. eigenvalues --   -0.57239  -0.56469  -0.55774  -0.55123  -0.54352
 Alpha  occ. eigenvalues --   -0.53599  -0.53062  -0.52693  -0.52471  -0.52082
 Alpha  occ. eigenvalues --   -0.51694  -0.50827  -0.50228  -0.49921  -0.49343
 Alpha  occ. eigenvalues --   -0.49193  -0.48989  -0.48398  -0.48134  -0.47947
 Alpha  occ. eigenvalues --   -0.47732  -0.47618  -0.47162  -0.46165  -0.45857
 Alpha  occ. eigenvalues --   -0.45177  -0.44997  -0.44350  -0.43878  -0.43246
 Alpha  occ. eigenvalues --   -0.42539  -0.42277  -0.41131  -0.40980  -0.40851
 Alpha  occ. eigenvalues --   -0.40674  -0.40467  -0.40013  -0.39848  -0.39364
 Alpha  occ. eigenvalues --   -0.39209  -0.38946  -0.38522  -0.38343  -0.37862
 Alpha  occ. eigenvalues --   -0.37319  -0.36524  -0.36412  -0.36086  -0.34986
 Alpha  occ. eigenvalues --   -0.34469  -0.34245  -0.31827  -0.31301  -0.29932
 Alpha  occ. eigenvalues --   -0.29075  -0.28759  -0.27757  -0.24049  -0.23892
 Alpha virt. eigenvalues --   -0.01311   0.00488   0.03296   0.03616   0.10128
 Alpha virt. eigenvalues --    0.10601   0.11335   0.12526   0.13169   0.13256
 Alpha virt. eigenvalues --    0.14114   0.14410   0.14904   0.15453   0.15560

 Mulliken charges:
               1
     1  C   -0.306390
     2  C   -0.307792
     3  C   -0.310743
     4  C   -0.059111
     5  C    0.060400
     6  C   -0.307917
     7  H    0.175524
     8  H    0.163204
     9  H    0.166858
    10  H    0.150999
    11  H    0.165068
    12  H    0.206781
    13  H    0.175708
    14  H    0.194004
    15  H    0.162534
    16  H    0.156180
    17  N   -0.437287
    18  C    0.075379
    19  C    0.073902
    20  C   -0.206511
    21  H    0.203993
    22  C   -0.216940
    23  H    0.243168
    24  C    0.449570
    25  H    0.192372
    26  H    0.210294
    27  N   -0.519804
    28  C   -0.167439
    29  H    0.167222
    30  H    0.223919
    31  C   -0.147560
    32  H    0.161059
    33  H    0.205898
    34  N   -0.800939
    35  S    1.242315
    36  O   -0.603565
    37  O   -0.592824
    38  C    0.057513
    39  C   -0.196169
    40  C   -0.191805
    41  C   -0.172465
    42  C   -0.165442
    43  C   -0.206182
    44  H    0.229838
    45  H    0.141254
    46  H    0.155706
    47  H    0.159241
    48  H    0.153301
    49  O   -0.581649
    50  H    0.441530
    51  C    0.718153
    52  O   -0.705297
    53  O   -0.707951
    54  H    0.432735
    55  C   -0.340349
    56  H    0.143905
    57  H    0.150115
    58  C   -0.082910
    59  H    0.133334
    60  H    0.153887
    61  C   -0.664952
    62  H    0.272623
    63  H    0.199743
    64  H    0.221464
    65  C   -0.285824
    66  H    0.139731
    67  H    0.141084
    68  C   -0.474301
    69  H    0.147843
    70  H    0.150206
    71  H    0.147754
    72  C   -0.333673
    73  H    0.185269
    74  H    0.160302
    75  C   -0.339395
    76  H    0.203884
    77  H    0.166420
 Sum of Mulliken charges =  -0.00000

 Dipole moment (field-independent basis, Debye):
    X=             -3.5503    Y=             -1.8962    Z=             -5.8218  Tot=              7.0777
 Quadrupole moment (field-independent basis, Debye-Ang):
   XX=           -208.3156   YY=           -221.8812   ZZ=           -218.9548
   XY=            -13.1949   XZ=             -4.2127   YZ=             10.5910

 Normal termination of Gaussian 16 at Thu Feb  7 11:10:58 2019.
