 Gaussian 16, Revision A.03,
 Gaussian 16:  ES64L-G16RevA.03 25-Dec-2016

 ------------------------------------------
 #p M062X/6-31G* em=gd3 force int=ultrafine
 ------------------------------------------

 -----
 Title
 -----
 Symbolic Z-matrix:
 Charge =  0 Multiplicity = 1

                         Standard orientation:
 ---------------------------------------------------------------------
 Center     Atomic      Atomic             Coordinates (Angstroms)
 Number     Number       Type             X           Y           Z
 ---------------------------------------------------------------------
      1          6           0       -4.793148    0.456262   -0.516129
      2          6           0       -5.000020   -0.844916   -1.297237
      3          6           0       -3.683088   -1.322394   -1.921594
      4          6           0       -2.659318   -1.521278   -0.809952
      5          6           0       -2.409823   -0.197765   -0.042329
      6          6           0       -3.722971    0.302291    0.569426
      7          1           0       -3.820513   -2.254091   -2.480653
      8          1           0       -5.382772   -1.622892   -0.623628
      9          1           0       -5.749550   -0.704938   -2.082442
     10          1           0       -4.484685    1.246659   -1.213021
     11          1           0       -5.737309    0.776632   -0.063779
     12          1           0       -3.033840   -2.268154   -0.103251
     13          1           0       -2.091461    0.545683   -0.784281
     14          1           0       -4.064793   -0.402267    1.334893
     15          1           0       -3.528043    1.265316    1.053450
     16          1           0       -3.337180   -0.554603   -2.626787
     17          7           0       -1.343986   -2.018000   -1.265377
     18          6           0       -0.662253   -1.344597   -2.230556
     19          6           0       -0.644894   -2.809418   -0.408673
     20          6           0        0.692529   -1.403136   -2.338021
     21          1           0       -1.257670   -0.724613   -2.889415
     22          6           0        0.711611   -2.905823   -0.442740
     23          1           0       -1.230989   -3.305276    0.357583
     24          6           0        1.450851   -2.100230   -1.349961
     25          1           0        1.179953   -0.838897   -3.121600
     26          1           0        1.200220   -3.495886    0.319488
     27          7           0        2.773421   -2.003451   -1.281128
     28          6           0        3.511667   -2.466440   -0.096336
     29          1           0        3.389531   -3.544703    0.038051
     30          1           0        3.126126   -1.923096    0.778897
     31          6           0        3.501585   -0.932521   -1.977007
     32          1           0        3.741504   -1.245917   -3.000482
     33          1           0        2.875515   -0.036316   -1.991898
     34          7           0       -1.285360   -0.289375    0.876243
     35         16           0       -1.327069   -1.124677    2.277583
     36          8           0       -2.542193   -1.944940    2.283617
     37          8           0       -0.043249   -1.807028    2.456408
     38          6           0       -0.573522    2.673957   -0.010199
     39          6           0       -0.101385    2.161815   -1.229101
     40          6           0       -0.879322    2.242257   -2.382729
     41          6           0       -2.145948    2.825950   -2.353112
     42          6           0       -2.627907    3.333605   -1.149668
     43          6           0       -1.843920    3.257692    0.001883
     44          1           0        0.853847    1.648311   -1.239559
     45          1           0       -0.485700    1.850890   -3.318726
     46          1           0       -2.745844    2.891001   -3.256703
     47          1           0       -3.611180    3.793923   -1.105497
     48          1           0       -2.228925    3.667211    0.933803
     49          8           0        0.724212    1.543382    1.857006
     50          1           0       -0.310650   -0.050885    0.555617
     51          6           0        1.879310    0.816636    1.235259
     52          8           0        1.493858    0.205028    0.136578
     53          8           0        2.250251   -0.061601    2.282468
     54          1           0        1.556574   -0.745679    2.294970
     55          6           0        3.073109    1.800343    1.131782
     56          1           0        3.005386    2.517122    1.960769
     57          1           0        3.974262    1.207036    1.331767
     58          6           0        0.257752    2.729090    1.276101
     59          1           0       -0.381729    3.192422    2.039056
     60          1           0        1.089204    3.431542    1.114382
     61          6           0       -1.442916    0.101468    3.559164
     62          1           0       -0.563584    0.741632    3.445697
     63          1           0       -2.368293    0.661003    3.411600
     64          1           0       -1.450819   -0.420636    4.517369
     65          6           0        3.256736    2.537459   -0.191873
     66          1           0        3.379043    1.806316   -1.000461
     67          1           0        2.363625    3.115342   -0.454555
     68          6           0        4.462240    3.475004   -0.146464
     69          1           0        4.614988    3.990059   -1.099891
     70          1           0        4.327819    4.237043    0.628245
     71          1           0        5.378609    2.924871    0.093297
     72          6           0        4.947291   -2.065057   -0.414544
     73          1           0        5.558750   -1.989442    0.486346
     74          1           0        5.405113   -2.798124   -1.087991
     75          6           0        4.754471   -0.721917   -1.121771
     76          1           0        4.538734    0.046994   -0.375320
     77          1           0        5.615998   -0.408741   -1.715178
 ---------------------------------------------------------------------

 SCF Done:  E(RM062X) =  -1991.35810471     A.U. after   14 cycles

 The electronic state is 1-A.
 Alpha  occ. eigenvalues --  -90.14272 -19.61866 -19.61835 -19.58628 -19.56669
 Alpha  occ. eigenvalues --  -19.51127 -14.85204 -14.80425 -14.75966 -10.63417
 Alpha  occ. eigenvalues --  -10.62789 -10.62236 -10.62177 -10.60784 -10.59436
 Alpha  occ. eigenvalues --  -10.58359 -10.58002 -10.57970 -10.57183 -10.56899
 Alpha  occ. eigenvalues --  -10.56724 -10.55693 -10.55646 -10.55088 -10.54860
 Alpha  occ. eigenvalues --  -10.54839 -10.54759 -10.54746 -10.54595 -10.54416
 Alpha  occ. eigenvalues --  -10.54373 -10.54339 -10.53048 -10.51432 -10.51395
 Alpha  occ. eigenvalues --  -10.49633  -8.45248  -6.37467  -6.37441  -6.37284
 Alpha  occ. eigenvalues --   -1.22092  -1.13600  -1.13427  -1.10346  -1.09329
 Alpha  occ. eigenvalues --   -1.05831  -1.01850  -0.99257  -0.95782  -0.95002
 Alpha  occ. eigenvalues --   -0.93521  -0.90318  -0.88761  -0.85979  -0.85709
 Alpha  occ. eigenvalues --   -0.84830  -0.84737  -0.84193  -0.83064  -0.82751
 Alpha  occ. eigenvalues --   -0.76682  -0.76217  -0.75824  -0.74329  -0.72854
 Alpha  occ. eigenvalues --   -0.71690  -0.68327  -0.68204  -0.67938  -0.67257
 Alpha  occ. eigenvalues --   -0.66722  -0.65253  -0.64860  -0.63532  -0.60535
 Alpha  occ. eigenvalues --   -0.60403  -0.59763  -0.59143  -0.57799  -0.57626
 Alpha  occ. eigenvalues --   -0.57209  -0.56452  -0.55806  -0.55163  -0.54215
 Alpha  occ. eigenvalues --   -0.53580  -0.52686  -0.52504  -0.52484  -0.51912
 Alpha  occ. eigenvalues --   -0.51560  -0.50992  -0.50656  -0.49898  -0.49507
 Alpha  occ. eigenvalues --   -0.49164  -0.48867  -0.48211  -0.48137  -0.47968
 Alpha  occ. eigenvalues --   -0.47704  -0.47488  -0.46939  -0.46403  -0.46099
 Alpha  occ. eigenvalues --   -0.44905  -0.44742  -0.44179  -0.43851  -0.43270
 Alpha  occ. eigenvalues --   -0.42548  -0.42163  -0.41365  -0.41276  -0.41073
 Alpha  occ. eigenvalues --   -0.40903  -0.40512  -0.39991  -0.39780  -0.39261
 Alpha  occ. eigenvalues --   -0.39243  -0.39087  -0.38425  -0.38020  -0.37631
 Alpha  occ. eigenvalues --   -0.37379  -0.36744  -0.36532  -0.35796  -0.34922
 Alpha  occ. eigenvalues --   -0.34396  -0.34011  -0.31672  -0.31159  -0.29783
 Alpha  occ. eigenvalues --   -0.28870  -0.28607  -0.27676  -0.24711  -0.24312
 Alpha virt. eigenvalues --   -0.01526   0.00387   0.03530   0.03736   0.10126
 Alpha virt. eigenvalues --    0.10933   0.11625   0.12256   0.13152   0.13464
 Alpha virt. eigenvalues --    0.14226   0.14515   0.14754   0.15225   0.15598

 Mulliken charges:
               1
     1  C   -0.306289
     2  C   -0.307236
     3  C   -0.309138
     4  C   -0.060280
     5  C    0.056063
     6  C   -0.311087
     7  H    0.174202
     8  H    0.162957
     9  H    0.165702
    10  H    0.150834
    11  H    0.163652
    12  H    0.209055
    13  H    0.173473
    14  H    0.193680
    15  H    0.163490
    16  H    0.154520
    17  N   -0.431021
    18  C    0.067467
    19  C    0.064500
    20  C   -0.201422
    21  H    0.206185
    22  C   -0.209657
    23  H    0.244744
    24  C    0.445966
    25  H    0.192278
    26  H    0.211415
    27  N   -0.525462
    28  C   -0.170123
    29  H    0.169668
    30  H    0.228043
    31  C   -0.154544
    32  H    0.164779
    33  H    0.206997
    34  N   -0.813852
    35  S    1.252089
    36  O   -0.610781
    37  O   -0.604789
    38  C    0.082249
    39  C   -0.186109
    40  C   -0.190064
    41  C   -0.171644
    42  C   -0.163829
    43  C   -0.211777
    44  H    0.214352
    45  H    0.140399
    46  H    0.154954
    47  H    0.158588
    48  H    0.152409
    49  O   -0.552495
    50  H    0.447345
    51  C    0.722895
    52  O   -0.720619
    53  O   -0.717693
    54  H    0.443264
    55  C   -0.338264
    56  H    0.148109
    57  H    0.151217
    58  C   -0.089816
    59  H    0.139134
    60  H    0.148063
    61  C   -0.663490
    62  H    0.274970
    63  H    0.196511
    64  H    0.217831
    65  C   -0.291308
    66  H    0.133916
    67  H    0.145715
    68  C   -0.473210
    69  H    0.148708
    70  H    0.153891
    71  H    0.146040
    72  C   -0.332051
    73  H    0.186798
    74  H    0.162733
    75  C   -0.342810
    76  H    0.198201
    77  H    0.170807
 Sum of Mulliken charges =  -0.00000

 Dipole moment (field-independent basis, Debye):
    X=             -2.6994    Y=             -2.0109    Z=             -6.2906  Tot=              7.1345
 Quadrupole moment (field-independent basis, Debye-Ang):
   XX=           -206.0920   YY=           -222.3687   ZZ=           -220.1004
   XY=            -12.5484   XZ=             -5.1175   YZ=             10.1192

 Normal termination of Gaussian 16 at Thu Feb  7 13:55:24 2019.
