 Gaussian 16, Revision A.03,
 Gaussian 16:  ES64L-G16RevA.03 25-Dec-2016

 ------------------------------------------
 #p M062X/6-31G* em=gd3 force int=ultrafine
 ------------------------------------------

 -----
 Title
 -----
 Symbolic Z-matrix:
 Charge =  0 Multiplicity = 1

                         Standard orientation:
 ---------------------------------------------------------------------
 Center     Atomic      Atomic             Coordinates (Angstroms)
 Number     Number       Type             X           Y           Z
 ---------------------------------------------------------------------
      1          6           0       -4.783053    0.346880   -0.631804
      2          6           0       -4.929740   -0.952459   -1.429337
      3          6           0       -3.580828   -1.388631   -2.014232
      4          6           0       -2.589151   -1.570422   -0.871057
      5          6           0       -2.395898   -0.244307   -0.089915
      6          6           0       -3.741775    0.213692    0.483905
      7          1           0       -3.674876   -2.317709   -2.586664
      8          1           0       -5.312710   -1.746439   -0.774883
      9          1           0       -5.656946   -0.825369   -2.237411
     10          1           0       -4.477094    1.151878   -1.312633
     11          1           0       -5.748968    0.636226   -0.205062
     12          1           0       -2.969849   -2.328607   -0.179701
     13          1           0       -2.075667    0.510683   -0.819497
     14          1           0       -4.086851   -0.507349    1.232357
     15          1           0       -3.590164    1.177319    0.981586
     16          1           0       -3.233522   -0.603992   -2.699962
     17          7           0       -1.250076   -2.037624   -1.285760
     18          6           0       -0.564730   -1.377041   -2.255814
     19          6           0       -0.551571   -2.792234   -0.395135
     20          6           0        0.793023   -1.413449   -2.338884
     21          1           0       -1.159737   -0.790152   -2.944583
     22          6           0        0.807016   -2.853873   -0.396169
     23          1           0       -1.143291   -3.287976    0.366772
     24          6           0        1.545641   -2.058607   -1.312459
     25          1           0        1.282121   -0.866479   -3.133299
     26          1           0        1.293319   -3.411309    0.391779
     27          7           0        2.864740   -1.929354   -1.219417
     28          6           0        3.587383   -2.311137    0.004329
     29          1           0        3.486222   -3.383396    0.193325
     30          1           0        3.169487   -1.733671    0.842585
     31          6           0        3.588718   -0.894049   -1.967241
     32          1           0        3.842803   -1.263059   -2.968510
     33          1           0        2.953521   -0.007862   -2.051661
     34          7           0       -1.297174   -0.310341    0.860501
     35         16           0       -1.372448   -1.142807    2.258524
     36          8           0       -2.559561   -2.003409    2.227497
     37          8           0       -0.076328   -1.786013    2.493185
     38          6           0       -0.641533    2.703273    0.047930
     39          6           0       -0.167392    2.242395   -1.190348
     40          6           0       -0.962385    2.324573   -2.331612
     41          6           0       -2.249310    2.860312   -2.268950
     42          6           0       -2.734862    3.313542   -1.045717
     43          6           0       -1.932789    3.236079    0.093417
     44          1           0        0.805198    1.767036   -1.230392
     45          1           0       -0.567953    1.973233   -3.282480
     46          1           0       -2.863447    2.928377   -3.162768
     47          1           0       -3.734921    3.733230   -0.975923
     48          1           0       -2.319416    3.605324    1.041570
     49          8           0        0.674111    1.581405    1.907197
     50          1           0       -0.304606   -0.063327    0.557921
     51          6           0        1.797991    0.842521    1.262000
     52          8           0        1.379821    0.232612    0.170288
     53          8           0        2.189761   -0.038106    2.300376
     54          1           0        1.484162   -0.709377    2.346216
     55          6           0        3.012929    1.798772    1.119839
     56          1           0        2.988362    2.522665    1.944167
     57          1           0        3.897224    1.175910    1.303983
     58          6           0        0.213005    2.765855    1.317012
     59          1           0       -0.403572    3.249600    2.085643
     60          1           0        1.052573    3.450811    1.128176
     61          6           0       -1.574217    0.084214    3.528931
     62          1           0       -0.714853    0.754591    3.439770
     63          1           0       -2.513239    0.610076    3.347563
     64          1           0       -1.594849   -0.431271    4.490510
     65          6           0        3.192391    2.513152   -0.216654
     66          1           0        3.111887    1.776779   -1.024383
     67          1           0        2.387924    3.235180   -0.397434
     68          6           0        4.536313    3.235131   -0.298517
     69          1           0        4.665992    3.745208   -1.258155
     70          1           0        4.625682    3.984906    0.495246
     71          1           0        5.368015    2.531300   -0.175707
     72          6           0        5.022797   -1.901062   -0.306846
     73          1           0        5.607473   -1.747848    0.602085
     74          1           0        5.514001   -2.670669   -0.912198
     75          6           0        4.831128   -0.615432   -1.115598
     76          1           0        4.611862    0.210018   -0.434103
     77          1           0        5.698418   -0.346400   -1.722267
 ---------------------------------------------------------------------

 SCF Done:  E(RM062X) =  -1991.35890877     A.U. after   14 cycles

 The electronic state is 1-A.
 Alpha  occ. eigenvalues --  -90.14065 -19.61684 -19.61669 -19.58785 -19.56741
 Alpha  occ. eigenvalues --  -19.51393 -14.85129 -14.80458 -14.75495 -10.63388
 Alpha  occ. eigenvalues --  -10.62761 -10.62327 -10.62082 -10.60660 -10.59225
 Alpha  occ. eigenvalues --  -10.58686 -10.57933 -10.57886 -10.57072 -10.56870
 Alpha  occ. eigenvalues --  -10.56657 -10.55610 -10.55577 -10.55176 -10.55005
 Alpha  occ. eigenvalues --  -10.54780 -10.54721 -10.54662 -10.54507 -10.54342
 Alpha  occ. eigenvalues --  -10.54266 -10.54211 -10.53101 -10.51663 -10.51564
 Alpha  occ. eigenvalues --  -10.49787  -8.45044  -6.37259  -6.37238  -6.37081
 Alpha  occ. eigenvalues --   -1.21897  -1.13651  -1.13475  -1.10148  -1.09356
 Alpha  occ. eigenvalues --   -1.05907  -1.01601  -0.99404  -0.95686  -0.94939
 Alpha  occ. eigenvalues --   -0.93459  -0.90244  -0.88754  -0.85909  -0.85815
 Alpha  occ. eigenvalues --   -0.84789  -0.84652  -0.84317  -0.83018  -0.82613
 Alpha  occ. eigenvalues --   -0.76643  -0.76366  -0.75831  -0.74400  -0.72712
 Alpha  occ. eigenvalues --   -0.71572  -0.68337  -0.68285  -0.67914  -0.67151
 Alpha  occ. eigenvalues --   -0.66758  -0.65194  -0.64865  -0.63521  -0.60577
 Alpha  occ. eigenvalues --   -0.60407  -0.59798  -0.58853  -0.57830  -0.57551
 Alpha  occ. eigenvalues --   -0.57131  -0.56423  -0.55708  -0.55156  -0.54168
 Alpha  occ. eigenvalues --   -0.53461  -0.52633  -0.52395  -0.52357  -0.51877
 Alpha  occ. eigenvalues --   -0.51524  -0.51081  -0.50941  -0.49844  -0.49595
 Alpha  occ. eigenvalues --   -0.49158  -0.48805  -0.48202  -0.48107  -0.48072
 Alpha  occ. eigenvalues --   -0.47623  -0.47427  -0.46893  -0.46471  -0.46092
 Alpha  occ. eigenvalues --   -0.44922  -0.44670  -0.44087  -0.43884  -0.43249
 Alpha  occ. eigenvalues --   -0.42446  -0.42080  -0.41542  -0.41425  -0.41185
 Alpha  occ. eigenvalues --   -0.40877  -0.40445  -0.40019  -0.39850  -0.39480
 Alpha  occ. eigenvalues --   -0.39248  -0.39042  -0.38446  -0.37883  -0.37580
 Alpha  occ. eigenvalues --   -0.37355  -0.36723  -0.36572  -0.35681  -0.34874
 Alpha  occ. eigenvalues --   -0.34348  -0.33887  -0.31738  -0.30980  -0.29721
 Alpha  occ. eigenvalues --   -0.28887  -0.28559  -0.27579  -0.24992  -0.24524
 Alpha virt. eigenvalues --   -0.01428   0.00480   0.03609   0.03823   0.10189
 Alpha virt. eigenvalues --    0.11057   0.11592   0.12101   0.13216   0.13553
 Alpha virt. eigenvalues --    0.14203   0.14677   0.14807   0.15336   0.15598

 Mulliken charges:
               1
     1  C   -0.306082
     2  C   -0.306901
     3  C   -0.310147
     4  C   -0.059228
     5  C    0.057156
     6  C   -0.311839
     7  H    0.173727
     8  H    0.162826
     9  H    0.165130
    10  H    0.150633
    11  H    0.162929
    12  H    0.208434
    13  H    0.172522
    14  H    0.193518
    15  H    0.163344
    16  H    0.153745
    17  N   -0.432136
    18  C    0.069680
    19  C    0.064356
    20  C   -0.204880
    21  H    0.206963
    22  C   -0.209092
    23  H    0.245851
    24  C    0.450086
    25  H    0.190928
    26  H    0.211761
    27  N   -0.528737
    28  C   -0.175187
    29  H    0.169904
    30  H    0.235848
    31  C   -0.154010
    32  H    0.168166
    33  H    0.200734
    34  N   -0.817220
    35  S    1.253923
    36  O   -0.611847
    37  O   -0.609264
    38  C    0.090188
    39  C   -0.178237
    40  C   -0.188919
    41  C   -0.170589
    42  C   -0.163686
    43  C   -0.212078
    44  H    0.203839
    45  H    0.141173
    46  H    0.154598
    47  H    0.158282
    48  H    0.152234
    49  O   -0.547922
    50  H    0.449669
    51  C    0.727859
    52  O   -0.724436
    53  O   -0.718312
    54  H    0.445733
    55  C   -0.337717
    56  H    0.150253
    57  H    0.148882
    58  C   -0.094484
    59  H    0.141340
    60  H    0.146799
    61  C   -0.662715
    62  H    0.271025
    63  H    0.196313
    64  H    0.217328
    65  C   -0.295755
    66  H    0.141521
    67  H    0.146871
    68  C   -0.475681
    69  H    0.149472
    70  H    0.156145
    71  H    0.143814
    72  C   -0.331860
    73  H    0.187587
    74  H    0.163593
    75  C   -0.344229
    76  H    0.194728
    77  H    0.171780
 Sum of Mulliken charges =  -0.00000

 Dipole moment (field-independent basis, Debye):
    X=             -2.1463    Y=             -1.8826    Z=             -6.4812  Tot=              7.0821
 Quadrupole moment (field-independent basis, Debye-Ang):
   XX=           -204.8550   YY=           -223.2677   ZZ=           -219.8288
   XY=            -12.0952   XZ=             -5.2856   YZ=             10.1410

 Normal termination of Gaussian 16 at Thu Feb  7 16:52:46 2019.
