 Gaussian 16, Revision A.03,
 Gaussian 16:  ES64L-G16RevA.03 25-Dec-2016

 ------------------------------------------
 #p M062X/6-31G* em=gd3 force int=ultrafine
 ------------------------------------------

 -----
 Title
 -----
 Symbolic Z-matrix:
 Charge =  0 Multiplicity = 1

                         Standard orientation:
 ---------------------------------------------------------------------
 Center     Atomic      Atomic             Coordinates (Angstroms)
 Number     Number       Type             X           Y           Z
 ---------------------------------------------------------------------
      1          6           0       -4.847583    0.541893   -0.522291
      2          6           0       -5.024064   -0.727286   -1.360972
      3          6           0       -3.683982   -1.180771   -1.952810
      4          6           0       -2.696832   -1.433760   -0.817664
      5          6           0       -2.491230   -0.149888    0.022405
      6          6           0       -3.825668    0.333726    0.598418
      7          1           0       -3.800291   -2.084387   -2.560539
      8          1           0       -5.433644   -1.529624   -0.733351
      9          1           0       -5.741511   -0.555643   -2.169422
     10          1           0       -4.501867    1.357283   -1.172444
     11          1           0       -5.808720    0.852052   -0.099947
     12          1           0       -3.089826   -2.219448   -0.164232
     13          1           0       -2.131549    0.623453   -0.668960
     14          1           0       -4.198341   -0.398599    1.322951
     15          1           0       -3.641444    1.274581    1.129807
     16          1           0       -3.312045   -0.380410   -2.606551
     17          7           0       -1.367195   -1.904616   -1.261681
     18          6           0       -0.681353   -1.232912   -2.224195
     19          6           0       -0.673869   -2.723495   -0.427198
     20          6           0        0.669484   -1.328786   -2.358798
     21          1           0       -1.268590   -0.588494   -2.865503
     22          6           0        0.678621   -2.859624   -0.489799
     23          1           0       -1.260252   -3.225361    0.334643
     24          6           0        1.429032   -2.076468   -1.409744
     25          1           0        1.157324   -0.766150   -3.143659
     26          1           0        1.161342   -3.483017    0.249477
     27          7           0        2.756881   -2.053010   -1.386656
     28          6           0        3.496266   -2.585104   -0.231219
     29          1           0        3.348724   -3.665187   -0.141737
     30          1           0        3.132464   -2.070526    0.669264
     31          6           0        3.530180   -1.004863   -2.075174
     32          1           0        3.782292   -1.334634   -3.090834
     33          1           0        2.942606   -0.084659   -2.101374
     34          7           0       -1.408579   -0.300188    0.977713
     35         16           0       -1.440272   -1.201865    2.334493
     36          8           0       -2.666325   -2.002454    2.297146
     37          8           0       -0.162860   -1.902802    2.470558
     38          6           0       -0.542363    2.691274   -0.059406
     39          6           0       -0.035289    2.073026   -1.210056
     40          6           0       -0.732470    2.159368   -2.414604
     41          6           0       -1.951305    2.833828   -2.488776
     42          6           0       -2.468631    3.435603   -1.343018
     43          6           0       -1.763677    3.365668   -0.141759
     44          1           0        0.881627    1.488914   -1.119758
     45          1           0       -0.316930    1.696819   -3.307864
     46          1           0       -2.489806    2.896907   -3.430276
     47          1           0       -3.418264    3.961826   -1.385003
     48          1           0       -2.172229    3.839354    0.748734
     49          8           0        0.639274    1.350485    1.641067
     50          1           0       -0.544810    0.276966    0.916217
     51          6           0        2.056461    0.723876    1.197164
     52          8           0        1.944889    0.178037    0.042774
     53          8           0        2.237122   -0.158620    2.277747
     54          1           0        1.560476   -0.850923    2.164796
     55          6           0        3.105749    1.836297    1.365539
     56          1           0        2.836976    2.486866    2.207001
     57          1           0        4.035007    1.331322    1.660252
     58          6           0        0.208202    2.626323    1.265405
     59          1           0       -0.472587    2.992278    2.050625
     60          1           0        1.046113    3.338615    1.240225
     61          6           0       -1.499317   -0.020951    3.664025
     62          1           0       -0.620869    0.618016    3.528547
     63          1           0       -2.428042    0.545956    3.583571
     64          1           0       -1.451987   -0.568948    4.606320
     65          6           0        3.364336    2.646430    0.097593
     66          1           0        3.713147    1.966645   -0.688120
     67          1           0        2.432728    3.077067   -0.288290
     68          6           0        4.383642    3.759440    0.328071
     69          1           0        4.588789    4.319396   -0.589586
     70          1           0        4.022287    4.469802    1.080201
     71          1           0        5.332409    3.351249    0.693881
     72          6           0        4.939262   -2.200310   -0.535751
     73          1           0        5.550397   -2.169769    0.368172
     74          1           0        5.385403   -2.916457   -1.235052
     75          6           0        4.767696   -0.829976   -1.192575
     76          1           0        4.523880   -0.091981   -0.423095
     77          1           0        5.641638   -0.499147   -1.757808
 ---------------------------------------------------------------------

 SCF Done:  E(RM062X) =  -1991.35547968     A.U. after   15 cycles

 The electronic state is 1-A.
 Alpha  occ. eigenvalues --  -90.14651 -19.62321 -19.61998 -19.58385 -19.57284
 Alpha  occ. eigenvalues --  -19.50991 -14.85174 -14.80070 -14.76276 -10.63169
 Alpha  occ. eigenvalues --  -10.62608 -10.62407 -10.62123 -10.61054 -10.59806
 Alpha  occ. eigenvalues --  -10.57811 -10.57762 -10.57708 -10.56977 -10.56964
 Alpha  occ. eigenvalues --  -10.56856 -10.56366 -10.55847 -10.55105 -10.55055
 Alpha  occ. eigenvalues --  -10.55027 -10.54878 -10.54711 -10.54665 -10.54665
 Alpha  occ. eigenvalues --  -10.54411 -10.54093 -10.53113 -10.51124 -10.51025
 Alpha  occ. eigenvalues --  -10.49677  -8.45626  -6.37853  -6.37801  -6.37678
 Alpha  occ. eigenvalues --   -1.22450  -1.13442  -1.12793  -1.10650  -1.08902
 Alpha  occ. eigenvalues --   -1.05993  -1.02305  -1.00463  -0.95806  -0.95190
 Alpha  occ. eigenvalues --   -0.93471  -0.90113  -0.88577  -0.86485  -0.85432
 Alpha  occ. eigenvalues --   -0.84855  -0.84839  -0.83757  -0.83302  -0.83014
 Alpha  occ. eigenvalues --   -0.76566  -0.76067  -0.75563  -0.74099  -0.73209
 Alpha  occ. eigenvalues --   -0.71737  -0.68221  -0.68119  -0.67756  -0.67474
 Alpha  occ. eigenvalues --   -0.66405  -0.65467  -0.64874  -0.63330  -0.60514
 Alpha  occ. eigenvalues --   -0.60363  -0.59942  -0.59381  -0.57947  -0.57680
 Alpha  occ. eigenvalues --   -0.57162  -0.56366  -0.55621  -0.55033  -0.54368
 Alpha  occ. eigenvalues --   -0.53541  -0.53027  -0.52636  -0.52412  -0.52127
 Alpha  occ. eigenvalues --   -0.51655  -0.50846  -0.50136  -0.49943  -0.49391
 Alpha  occ. eigenvalues --   -0.49228  -0.48900  -0.48512  -0.48194  -0.48038
 Alpha  occ. eigenvalues --   -0.47694  -0.47642  -0.47144  -0.46259  -0.45861
 Alpha  occ. eigenvalues --   -0.45360  -0.45176  -0.44387  -0.44112  -0.43184
 Alpha  occ. eigenvalues --   -0.42465  -0.42331  -0.41212  -0.40905  -0.40757
 Alpha  occ. eigenvalues --   -0.40638  -0.40406  -0.40156  -0.39864  -0.39439
 Alpha  occ. eigenvalues --   -0.39081  -0.38957  -0.38717  -0.38272  -0.37724
 Alpha  occ. eigenvalues --   -0.37472  -0.36543  -0.36439  -0.36006  -0.35037
 Alpha  occ. eigenvalues --   -0.34591  -0.34302  -0.31938  -0.31220  -0.29990
 Alpha  occ. eigenvalues --   -0.29223  -0.28781  -0.27799  -0.24564  -0.24174
 Alpha virt. eigenvalues --   -0.01243   0.00576   0.03223   0.03621   0.10181
 Alpha virt. eigenvalues --    0.10605   0.11371   0.12551   0.13170   0.13329
 Alpha virt. eigenvalues --    0.14169   0.14401   0.15080   0.15533   0.15540

 Mulliken charges:
               1
     1  C   -0.306607
     2  C   -0.307783
     3  C   -0.311565
     4  C   -0.060826
     5  C    0.065886
     6  C   -0.306870
     7  H    0.175298
     8  H    0.163221
     9  H    0.166695
    10  H    0.151884
    11  H    0.164772
    12  H    0.207813
    13  H    0.174080
    14  H    0.191847
    15  H    0.160270
    16  H    0.156695
    17  N   -0.437180
    18  C    0.081186
    19  C    0.081813
    20  C   -0.211675
    21  H    0.202900
    22  C   -0.221806
    23  H    0.244259
    24  C    0.448542
    25  H    0.192100
    26  H    0.209688
    27  N   -0.518566
    28  C   -0.163841
    29  H    0.167489
    30  H    0.219516
    31  C   -0.145155
    32  H    0.160633
    33  H    0.205431
    34  N   -0.813648
    35  S    1.237220
    36  O   -0.604456
    37  O   -0.592321
    38  C    0.049418
    39  C   -0.197884
    40  C   -0.192773
    41  C   -0.172645
    42  C   -0.165065
    43  C   -0.205465
    44  H    0.235522
    45  H    0.140952
    46  H    0.156188
    47  H    0.159821
    48  H    0.154419
    49  O   -0.607778
    50  H    0.452054
    51  C    0.713285
    52  O   -0.680252
    53  O   -0.699155
    54  H    0.433395
    55  C   -0.339465
    56  H    0.145119
    57  H    0.151044
    58  C   -0.077366
    59  H    0.128879
    60  H    0.155320
    61  C   -0.666432
    62  H    0.265855
    63  H    0.200322
    64  H    0.223151
    65  C   -0.285266
    66  H    0.143196
    67  H    0.141179
    68  C   -0.475307
    69  H    0.148610
    70  H    0.149128
    71  H    0.148846
    72  C   -0.334297
    73  H    0.184199
    74  H    0.160339
    75  C   -0.338599
    76  H    0.205703
    77  H    0.164871
 Sum of Mulliken charges =  -0.00000

 Dipole moment (field-independent basis, Debye):
    X=             -3.4405    Y=             -1.4664    Z=             -5.7373  Tot=              6.8486
 Quadrupole moment (field-independent basis, Debye-Ang):
   XX=           -208.1539   YY=           -222.9274   ZZ=           -218.0642
   XY=            -13.5904   XZ=             -4.3110   YZ=             10.7793

 Normal termination of Gaussian 16 at Thu Feb  7 09:10:18 2019.
