 Gaussian 16, Revision A.03,
 Gaussian 16:  ES64L-G16RevA.03 25-Dec-2016

 ------------------------------------------
 #p M062X/6-31G* em=gd3 force int=ultrafine
 ------------------------------------------

 -----
 Title
 -----
 Symbolic Z-matrix:
 Charge =  0 Multiplicity = 1

                         Standard orientation:
 ---------------------------------------------------------------------
 Center     Atomic      Atomic             Coordinates (Angstroms)
 Number     Number       Type             X           Y           Z
 ---------------------------------------------------------------------
      1          6           0       -4.783302    0.335484   -0.646263
      2          6           0       -4.924323   -0.967768   -1.438383
      3          6           0       -3.572495   -1.403106   -2.017051
      4          6           0       -2.583819   -1.577309   -0.870096
      5          6           0       -2.396444   -0.247447   -0.093891
      6          6           0       -3.745474    0.209531    0.473475
      7          1           0       -3.662336   -2.334924   -2.585721
      8          1           0       -5.307371   -1.759736   -0.781535
      9          1           0       -5.649277   -0.846177   -2.249329
     10          1           0       -4.476997    1.138183   -1.329668
     11          1           0       -5.751305    0.624457   -0.224003
     12          1           0       -2.964569   -2.333579   -0.176646
     13          1           0       -2.075598    0.505281   -0.825566
     14          1           0       -4.091368   -0.509317    1.223600
     15          1           0       -3.598012    1.175515    0.967755
     16          1           0       -3.225160   -0.620566   -2.705146
     17          7           0       -1.242417   -2.042878   -1.279067
     18          6           0       -0.556999   -1.387196   -2.252300
     19          6           0       -0.543842   -2.790828   -0.382852
     20          6           0        0.800909   -1.422389   -2.333793
     21          1           0       -1.152033   -0.805577   -2.945472
     22          6           0        0.814840   -2.850171   -0.381747
     23          1           0       -1.135750   -3.283189    0.381071
     24          6           0        1.553288   -2.060000   -1.302559
     25          1           0        1.290030   -0.879889   -3.131240
     26          1           0        1.301112   -3.401821    0.410301
     27          7           0        2.872255   -1.929063   -1.209622
     28          6           0        3.595023   -2.302720    0.016566
     29          1           0        3.494240   -3.373832    0.212255
     30          1           0        3.176745   -1.720437    0.851351
     31          6           0        3.596109   -0.899209   -1.964843
     32          1           0        3.849572   -1.275133   -2.963712
     33          1           0        2.961117   -0.013446   -2.055647
     34          7           0       -1.300569   -0.306784    0.860265
     35         16           0       -1.379091   -1.133249    2.261650
     36          8           0       -2.565232   -1.995215    2.231591
     37          8           0       -0.083116   -1.774459    2.502887
     38          6           0       -0.645028    2.703982    0.043451
     39          6           0       -0.170966    2.243871   -1.195274
     40          6           0       -0.967736    2.323204   -2.335548
     41          6           0       -2.256404    2.855075   -2.271229
     42          6           0       -2.741797    3.307383   -1.047651
     43          6           0       -1.937794    3.232897    0.090407
     44          1           0        0.804032    1.772073   -1.237543
     45          1           0       -0.573151    1.973604   -3.287750
     46          1           0       -2.871715    2.921131   -3.164414
     47          1           0       -3.742824    3.724263   -0.976962
     48          1           0       -2.324056    3.601633    1.038843
     49          8           0        0.671975    1.587480    1.904689
     50          1           0       -0.307039   -0.060867    0.558181
     51          6           0        1.794285    0.845986    1.260500
     52          8           0        1.374627    0.234323    0.170615
     53          8           0        2.184879   -0.032425    2.300430
     54          1           0        1.478678   -0.701816    2.349519
     55          6           0        3.010862    1.799814    1.114324
     56          1           0        2.989255    2.525673    1.937557
     57          1           0        3.894346    1.175394    1.298270
     58          6           0        0.211239    2.770379    1.311123
     59          1           0       -0.403974    3.257310    2.078714
     60          1           0        1.051279    3.453736    1.119008
     61          6           0       -1.585253    0.099402    3.525905
     62          1           0       -0.726026    0.769835    3.436025
     63          1           0       -2.524077    0.623816    3.339535
     64          1           0       -1.608173   -0.411589    4.489796
     65          6           0        3.190105    2.510960   -0.224013
     66          1           0        3.107804    1.773400   -1.029751
     67          1           0        2.387105    3.233465   -0.405621
     68          6           0        4.535425    3.230129   -0.308562
     69          1           0        4.664169    3.738025   -1.269563
     70          1           0        4.626278    3.980710    0.483478
     71          1           0        5.366183    2.525673   -0.185054
     72          6           0        5.030422   -1.894561   -0.297410
     73          1           0        5.614939   -1.734461    0.610472
     74          1           0        5.521927   -2.668600   -0.896855
     75          6           0        4.839154   -0.614976   -1.115908
     76          1           0        4.621261    0.216083   -0.440775
     77          1           0        5.706336   -0.351379   -1.725158
 ---------------------------------------------------------------------

 SCF Done:  E(RM062X) =  -1991.35892246     A.U. after   14 cycles

 The electronic state is 1-A.
 Alpha  occ. eigenvalues --  -90.14056 -19.61676 -19.61657 -19.58780 -19.56731
 Alpha  occ. eigenvalues --  -19.51385 -14.85125 -14.80458 -14.75480 -10.63384
 Alpha  occ. eigenvalues --  -10.62757 -10.62320 -10.62071 -10.60655 -10.59216
 Alpha  occ. eigenvalues --  -10.58705 -10.57924 -10.57885 -10.57064 -10.56862
 Alpha  occ. eigenvalues --  -10.56655 -10.55606 -10.55575 -10.55187 -10.55024
 Alpha  occ. eigenvalues --  -10.54775 -10.54717 -10.54656 -10.54508 -10.54337
 Alpha  occ. eigenvalues --  -10.54260 -10.54200 -10.53117 -10.51664 -10.51561
 Alpha  occ. eigenvalues --  -10.49798  -8.45035  -6.37250  -6.37229  -6.37072
 Alpha  occ. eigenvalues --   -1.21887  -1.13667  -1.13470  -1.10136  -1.09358
 Alpha  occ. eigenvalues --   -1.05915  -1.01591  -0.99411  -0.95681  -0.94930
 Alpha  occ. eigenvalues --   -0.93457  -0.90237  -0.88755  -0.85917  -0.85812
 Alpha  occ. eigenvalues --   -0.84783  -0.84646  -0.84326  -0.83011  -0.82606
 Alpha  occ. eigenvalues --   -0.76641  -0.76368  -0.75830  -0.74397  -0.72706
 Alpha  occ. eigenvalues --   -0.71566  -0.68340  -0.68289  -0.67909  -0.67147
 Alpha  occ. eigenvalues --   -0.66760  -0.65190  -0.64866  -0.63521  -0.60580
 Alpha  occ. eigenvalues --   -0.60407  -0.59800  -0.58839  -0.57834  -0.57546
 Alpha  occ. eigenvalues --   -0.57127  -0.56421  -0.55699  -0.55156  -0.54167
 Alpha  occ. eigenvalues --   -0.53453  -0.52630  -0.52390  -0.52351  -0.51871
 Alpha  occ. eigenvalues --   -0.51521  -0.51086  -0.50948  -0.49842  -0.49597
 Alpha  occ. eigenvalues --   -0.49159  -0.48802  -0.48204  -0.48107  -0.48068
 Alpha  occ. eigenvalues --   -0.47618  -0.47425  -0.46893  -0.46472  -0.46091
 Alpha  occ. eigenvalues --   -0.44926  -0.44664  -0.44083  -0.43884  -0.43248
 Alpha  occ. eigenvalues --   -0.42441  -0.42075  -0.41556  -0.41431  -0.41192
 Alpha  occ. eigenvalues --   -0.40875  -0.40441  -0.40020  -0.39853  -0.39494
 Alpha  occ. eigenvalues --   -0.39243  -0.39039  -0.38444  -0.37876  -0.37577
 Alpha  occ. eigenvalues --   -0.37352  -0.36729  -0.36566  -0.35677  -0.34871
 Alpha  occ. eigenvalues --   -0.34344  -0.33880  -0.31744  -0.30971  -0.29712
 Alpha  occ. eigenvalues --   -0.28882  -0.28552  -0.27572  -0.24988  -0.24520
 Alpha virt. eigenvalues --   -0.01416   0.00489   0.03614   0.03829   0.10198
 Alpha virt. eigenvalues --    0.11061   0.11580   0.12093   0.13216   0.13551
 Alpha virt. eigenvalues --    0.14203   0.14679   0.14813   0.15350   0.15598

 Mulliken charges:
               1
     1  C   -0.306072
     2  C   -0.306889
     3  C   -0.310218
     4  C   -0.059135
     5  C    0.057084
     6  C   -0.311815
     7  H    0.173718
     8  H    0.162843
     9  H    0.165098
    10  H    0.150560
    11  H    0.162905
    12  H    0.208403
    13  H    0.172454
    14  H    0.193621
    15  H    0.163306
    16  H    0.153706
    17  N   -0.432359
    18  C    0.069935
    19  C    0.064534
    20  C   -0.205191
    21  H    0.207013
    22  C   -0.209153
    23  H    0.245861
    24  C    0.450633
    25  H    0.190832
    26  H    0.211761
    27  N   -0.529061
    28  C   -0.175564
    29  H    0.169940
    30  H    0.236352
    31  C   -0.153973
    32  H    0.168319
    33  H    0.200486
    34  N   -0.817258
    35  S    1.253924
    36  O   -0.611733
    37  O   -0.609418
    38  C    0.090666
    39  C   -0.177740
    40  C   -0.188921
    41  C   -0.170588
    42  C   -0.163621
    43  C   -0.212085
    44  H    0.203209
    45  H    0.141287
    46  H    0.154561
    47  H    0.158277
    48  H    0.152192
    49  O   -0.547786
    50  H    0.449706
    51  C    0.728097
    52  O   -0.724613
    53  O   -0.718135
    54  H    0.445776
    55  C   -0.337600
    56  H    0.150176
    57  H    0.148443
    58  C   -0.094675
    59  H    0.141358
    60  H    0.146706
    61  C   -0.662676
    62  H    0.270846
    63  H    0.196296
    64  H    0.217335
    65  C   -0.295889
    66  H    0.141735
    67  H    0.147041
    68  C   -0.475937
    69  H    0.149446
    70  H    0.156328
    71  H    0.143933
    72  C   -0.331887
    73  H    0.187578
    74  H    0.163673
    75  C   -0.344308
    76  H    0.194486
    77  H    0.171861
 Sum of Mulliken charges =  -0.00000

 Dipole moment (field-independent basis, Debye):
    X=             -2.1060    Y=             -1.9006    Z=             -6.4920  Tot=              7.0847
 Quadrupole moment (field-independent basis, Debye-Ang):
   XX=           -204.7535   YY=           -223.2444   ZZ=           -219.8722
   XY=            -12.1047   XZ=             -5.2519   YZ=             10.1659

 Normal termination of Gaussian 16 at Thu Feb  7 17:02:35 2019.
