 Gaussian 16, Revision A.03,
 Gaussian 16:  ES64L-G16RevA.03 25-Dec-2016

 ------------------------------------------
 #p M062X/6-31G* em=gd3 force int=ultrafine
 ------------------------------------------

 -----
 Title
 -----
 Symbolic Z-matrix:
 Charge =  0 Multiplicity = 1

                         Standard orientation:
 ---------------------------------------------------------------------
 Center     Atomic      Atomic             Coordinates (Angstroms)
 Number     Number       Type             X           Y           Z
 ---------------------------------------------------------------------
      1          6           0       -4.849367    0.477464   -0.540561
      2          6           0       -5.035286   -0.837596   -1.303581
      3          6           0       -3.704700   -1.318564   -1.894550
      4          6           0       -2.696079   -1.493843   -0.764279
      5          6           0       -2.473872   -0.156775   -0.015347
      6          6           0       -3.799268    0.344629    0.567047
      7          1           0       -3.826273   -2.259373   -2.441811
      8          1           0       -5.428347   -1.605772   -0.624731
      9          1           0       -5.769456   -0.714368   -2.105918
     10          1           0       -4.530092    1.258335   -1.243921
     11          1           0       -5.803487    0.800862   -0.112060
     12          1           0       -3.074740   -2.234127   -0.052285
     13          1           0       -2.148839    0.577133   -0.763837
     14          1           0       -4.150260   -0.349642    1.337655
     15          1           0       -3.616762    1.315603    1.040449
     16          1           0       -3.350440   -0.559563   -2.605002
     17          7           0       -1.373385   -1.988893   -1.198849
     18          6           0       -0.692328   -1.347798   -2.186458
     19          6           0       -0.676368   -2.770737   -0.332035
     20          6           0        0.659457   -1.434400   -2.311778
     21          1           0       -1.284905   -0.732479   -2.851693
     22          6           0        0.677251   -2.893147   -0.383390
     23          1           0       -1.260391   -3.241309    0.451352
     24          6           0        1.420549   -2.130240   -1.325015
     25          1           0        1.145551   -0.896172   -3.114412
     26          1           0        1.165232   -3.476354    0.384475
     27          7           0        2.746241   -2.075071   -1.286517
     28          6           0        3.487776   -2.546492   -0.106415
     29          1           0        3.350877   -3.622771    0.031216
     30          1           0        3.117167   -1.993860    0.769081
     31          6           0        3.498425   -1.034869   -2.006330
     32          1           0        3.748438   -1.384961   -3.015652
     33          1           0        2.891511   -0.127240   -2.052746
     34          7           0       -1.364795   -0.214471    0.924301
     35         16           0       -1.375472   -1.042179    2.335427
     36          8           0       -2.611545   -1.827483    2.373985
     37          8           0       -0.104111   -1.752005    2.481935
     38          6           0       -0.529113    2.642165   -0.090980
     39          6           0       -0.055639    2.070014   -1.281376
     40          6           0       -0.816452    2.132518   -2.448390
     41          6           0       -2.063228    2.757275   -2.458771
     42          6           0       -2.544394    3.326627   -1.281969
     43          6           0       -1.780094    3.267453   -0.116539
     44          1           0        0.886170    1.528759   -1.251437
     45          1           0       -0.424059    1.693623   -3.363829
     46          1           0       -2.648479    2.807622   -3.372862
     47          1           0       -3.511947    3.821006   -1.270819
     48          1           0       -2.164887    3.721095    0.794765
     49          8           0        0.744346    1.486484    1.764479
     50          1           0       -0.410850    0.051605    0.616033
     51          6           0        1.967508    0.795535    1.192031
     52          8           0        1.665884    0.189061    0.075322
     53          8           0        2.292144   -0.080055    2.258754
     54          1           0        1.586657   -0.751881    2.249989
     55          6           0        3.128369    1.819923    1.164040
     56          1           0        2.993922    2.531867    1.988854
     57          1           0        4.040974    1.259426    1.403878
     58          6           0        0.281302    2.685570    1.208280
     59          1           0       -0.374748    3.130135    1.969580
     60          1           0        1.109979    3.396793    1.073566
     61          6           0       -1.416245    0.200844    3.604652
     62          1           0       -0.525669    0.817007    3.449570
     63          1           0       -2.334741    0.778557    3.489345
     64          1           0       -1.394515   -0.311574    4.567993
     65          6           0        3.340424    2.561838   -0.153363
     66          1           0        3.567618    1.835833   -0.943074
     67          1           0        2.422585    3.064381   -0.478208
     68          6           0        4.465536    3.589848   -0.043069
     69          1           0        4.644502    4.104556   -0.992172
     70          1           0        4.223493    4.349298    0.709005
     71          1           0        5.402942    3.113570    0.265876
     72          6           0        4.926557   -2.162606   -0.430673
     73          1           0        5.540835   -2.091121    0.468642
     74          1           0        5.375783   -2.901262   -1.104095
     75          6           0        4.740286   -0.819691   -1.138254
     76          1           0        4.503389   -0.055386   -0.392847
     77          1           0        5.607605   -0.501632   -1.720658
 ---------------------------------------------------------------------

 SCF Done:  E(RM062X) =  -1991.35675081     A.U. after   15 cycles

 The electronic state is 1-A.
 Alpha  occ. eigenvalues --  -90.14657 -19.62226 -19.62128 -19.58517 -19.56613
 Alpha  occ. eigenvalues --  -19.50634 -14.85297 -14.80262 -14.76682 -10.63327
 Alpha  occ. eigenvalues --  -10.62757 -10.62250 -10.61961 -10.61015 -10.59749
 Alpha  occ. eigenvalues --  -10.58083 -10.57924 -10.57801 -10.57148 -10.56912
 Alpha  occ. eigenvalues --  -10.56868 -10.55978 -10.55839 -10.55027 -10.54934
 Alpha  occ. eigenvalues --  -10.54874 -10.54837 -10.54680 -10.54594 -10.54471
 Alpha  occ. eigenvalues --  -10.54424 -10.54385 -10.52958 -10.51190 -10.51127
 Alpha  occ. eigenvalues --  -10.49428  -8.45631  -6.37855  -6.37818  -6.37665
 Alpha  occ. eigenvalues --   -1.22453  -1.13625  -1.13103  -1.10698  -1.09148
 Alpha  occ. eigenvalues --   -1.05685  -1.02321  -0.99174  -0.95882  -0.95043
 Alpha  occ. eigenvalues --   -0.93565  -0.90296  -0.88716  -0.86324  -0.85410
 Alpha  occ. eigenvalues --   -0.84876  -0.84810  -0.83969  -0.83107  -0.82993
 Alpha  occ. eigenvalues --   -0.76690  -0.75968  -0.75732  -0.74236  -0.73137
 Alpha  occ. eigenvalues --   -0.71796  -0.68261  -0.68140  -0.67870  -0.67455
 Alpha  occ. eigenvalues --   -0.66561  -0.65415  -0.64801  -0.63495  -0.60500
 Alpha  occ. eigenvalues --   -0.60332  -0.59671  -0.59588  -0.57775  -0.57697
 Alpha  occ. eigenvalues --   -0.57293  -0.56494  -0.55826  -0.55130  -0.54290
 Alpha  occ. eigenvalues --   -0.53617  -0.52928  -0.52646  -0.52476  -0.51994
 Alpha  occ. eigenvalues --   -0.51634  -0.50883  -0.50374  -0.49932  -0.49368
 Alpha  occ. eigenvalues --   -0.49134  -0.48991  -0.48279  -0.48123  -0.47864
 Alpha  occ. eigenvalues --   -0.47774  -0.47572  -0.47100  -0.46236  -0.45967
 Alpha  occ. eigenvalues --   -0.45081  -0.44795  -0.44291  -0.43805  -0.43275
 Alpha  occ. eigenvalues --   -0.42591  -0.42212  -0.41170  -0.41113  -0.40948
 Alpha  occ. eigenvalues --   -0.40750  -0.40546  -0.39958  -0.39809  -0.39292
 Alpha  occ. eigenvalues --   -0.39204  -0.39047  -0.38411  -0.38258  -0.37828
 Alpha  occ. eigenvalues --   -0.37286  -0.36609  -0.36409  -0.36018  -0.34966
 Alpha  occ. eigenvalues --   -0.34436  -0.34158  -0.31855  -0.31216  -0.29839
 Alpha  occ. eigenvalues --   -0.28928  -0.28636  -0.27742  -0.24181  -0.23969
 Alpha virt. eigenvalues --   -0.01413   0.00403   0.03426   0.03690   0.10120
 Alpha virt. eigenvalues --    0.10689   0.11427   0.12434   0.13168   0.13277
 Alpha virt. eigenvalues --    0.14150   0.14362   0.14760   0.15364   0.15571

 Mulliken charges:
               1
     1  C   -0.306384
     2  C   -0.307590
     3  C   -0.310162
     4  C   -0.058781
     5  C    0.056266
     6  C   -0.309406
     7  H    0.175117
     8  H    0.163101
     9  H    0.166589
    10  H    0.150885
    11  H    0.164801
    12  H    0.207246
    13  H    0.175499
    14  H    0.194883
    15  H    0.163439
    16  H    0.155833
    17  N   -0.435439
    18  C    0.071717
    19  C    0.068250
    20  C   -0.204145
    21  H    0.205066
    22  C   -0.212737
    23  H    0.243517
    24  C    0.448460
    25  H    0.192531
    26  H    0.210882
    27  N   -0.522101
    28  C   -0.168594
    29  H    0.168108
    30  H    0.225671
    31  C   -0.150287
    32  H    0.162418
    33  H    0.206151
    34  N   -0.801661
    35  S    1.246912
    36  O   -0.605420
    37  O   -0.597288
    38  C    0.068478
    39  C   -0.193193
    40  C   -0.191280
    41  C   -0.172583
    42  C   -0.164927
    43  C   -0.208686
    44  H    0.224322
    45  H    0.140417
    46  H    0.155170
    47  H    0.158678
    48  H    0.152453
    49  O   -0.566241
    50  H    0.439504
    51  C    0.719376
    52  O   -0.714207
    53  O   -0.713129
    54  H    0.436103
    55  C   -0.338696
    56  H    0.145324
    57  H    0.150024
    58  C   -0.084987
    59  H    0.135498
    60  H    0.151060
    61  C   -0.664516
    62  H    0.276070
    63  H    0.198587
    64  H    0.220002
    65  C   -0.287634
    66  H    0.136060
    67  H    0.143006
    68  C   -0.473889
    69  H    0.147961
    70  H    0.151430
    71  H    0.147390
    72  C   -0.333233
    73  H    0.186037
    74  H    0.161171
    75  C   -0.340795
    76  H    0.202163
    77  H    0.168370
 Sum of Mulliken charges =  -0.00000

 Dipole moment (field-independent basis, Debye):
    X=             -3.2949    Y=             -2.1314    Z=             -5.9881  Tot=              7.1594
 Quadrupole moment (field-independent basis, Debye-Ang):
   XX=           -207.5251   YY=           -221.6396   ZZ=           -219.6763
   XY=            -12.9695   XZ=             -4.5092   YZ=             10.3833

 Normal termination of Gaussian 16 at Thu Feb  7 12:03:15 2019.
