 Gaussian 16, Revision A.03,
 Gaussian 16:  ES64L-G16RevA.03 25-Dec-2016

 ------------------------------------------
 #p M062X/6-31G* em=gd3 force int=ultrafine
 ------------------------------------------

 -----
 Title
 -----
 Symbolic Z-matrix:
 Charge =  0 Multiplicity = 1

                         Standard orientation:
 ---------------------------------------------------------------------
 Center     Atomic      Atomic             Coordinates (Angstroms)
 Number     Number       Type             X           Y           Z
 ---------------------------------------------------------------------
      1          6           0       -4.867327    0.049957   -0.420814
      2          6           0       -4.896721   -1.230835   -1.260385
      3          6           0       -3.513609   -1.527022   -1.852527
      4          6           0       -2.508280   -1.649888   -0.712199
      5          6           0       -2.421002   -0.329596    0.104805
      6          6           0       -3.810483   -0.025169    0.685276
      7          1           0       -3.526935   -2.444234   -2.452468
      8          1           0       -5.208003   -2.075869   -0.632279
      9          1           0       -5.631099   -1.145037   -2.068016
     10          1           0       -4.632959    0.900230   -1.076694
     11          1           0       -5.856903    0.239196    0.008769
     12          1           0       -2.816567   -2.456468   -0.041814
     13          1           0       -2.212675    0.455576   -0.636999
     14          1           0       -4.074302   -0.800681    1.415632
     15          1           0       -3.747856    0.931396    1.218264
     16          1           0       -3.240439   -0.694025   -2.515046
     17          7           0       -1.140216   -2.004064   -1.156148
     18          6           0       -0.532375   -1.309978   -2.145373
     19          6           0       -0.381823   -2.760547   -0.328146
     20          6           0        0.820930   -1.332308   -2.324881
     21          1           0       -1.178761   -0.711797   -2.774631
     22          6           0        0.977251   -2.829150   -0.442119
     23          1           0       -0.914505   -3.266419    0.469936
     24          6           0        1.645848   -2.032973   -1.402216
     25          1           0        1.249300   -0.760885   -3.137763
     26          1           0        1.517332   -3.409547    0.292706
     27          7           0        2.981840   -1.932942   -1.422902
     28          6           0        3.785429   -2.439834   -0.303847
     29          1           0        3.732761   -3.531395   -0.251919
     30          1           0        3.398575   -2.017686    0.634316
     31          6           0        3.670528   -0.846084   -2.135092
     32          1           0        3.926475   -1.163881   -3.153350
     33          1           0        3.025211    0.035344   -2.175079
     34          7           0       -1.298123   -0.284590    1.019475
     35         16           0       -1.258290   -1.235430    2.279642
     36          8           0       -2.243370   -2.338993    2.238767
     37          8           0        0.142107   -1.678812    2.520562
     38          6           0       -1.170455    2.850317   -0.174636
     39          6           0       -0.421142    2.196009   -1.157734
     40          6           0       -0.927406    2.072009   -2.449963
     41          6           0       -2.193833    2.562199   -2.768404
     42          6           0       -2.951292    3.194224   -1.784128
     43          6           0       -2.436394    3.339087   -0.498104
     44          1           0        0.533336    1.746320   -0.890001
     45          1           0       -0.329868    1.581922   -3.215404
     46          1           0       -2.588534    2.454973   -3.774463
     47          1           0       -3.943229    3.571794   -2.014973
     48          1           0       -3.029941    3.827113    0.272189
     49          8           0        0.203147    1.944675    1.611873
     50          1           0       -0.277098    1.103629    1.357039
     51          6           0        2.435418    0.661814    1.244245
     52          8           0        2.136888    0.217682    0.148518
     53          8           0        2.182606    0.040876    2.383673
     54          1           0        1.496851   -0.673070    2.259794
     55          6           0        3.190371    1.955014    1.443572
     56          1           0        2.723534    2.471980    2.286843
     57          1           0        4.216344    1.705640    1.750817
     58          6           0       -0.624988    3.004900    1.230532
     59          1           0       -1.470470    3.138070    1.926559
     60          1           0       -0.020274    3.921255    1.289316
     61          6           0       -1.649503   -0.225531    3.705282
     62          1           0       -0.956523    0.619503    3.699341
     63          1           0       -2.680299    0.120220    3.605212
     64          1           0       -1.527724   -0.825222    4.608304
     65          6           0        3.190533    2.827278    0.195193
     66          1           0        3.612459    2.264055   -0.646121
     67          1           0        2.150335    3.043220   -0.073082
     68          6           0        3.960816    4.128316    0.397985
     69          1           0        3.956758    4.738861   -0.509570
     70          1           0        3.517453    4.722584    1.203834
     71          1           0        5.004673    3.932732    0.666851
     72          6           0        5.189527   -1.926974   -0.611744
     73          1           0        5.798031   -1.840133    0.290598
     74          1           0        5.695781   -2.606587   -1.305039
     75          6           0        4.914866   -0.579461   -1.283732
     76          1           0        4.663367    0.167134   -0.524733
     77          1           0        5.754190   -0.209822   -1.876325
 ---------------------------------------------------------------------

 SCF Done:  E(RM062X) =  -1991.38986290     A.U. after   15 cycles

 The electronic state is 1-A.
 Alpha  occ. eigenvalues --  -90.10381 -19.63378 -19.60095 -19.59300 -19.58610
 Alpha  occ. eigenvalues --  -19.58365 -14.84812 -14.80521 -14.69417 -10.65450
 Alpha  occ. eigenvalues --  -10.63239 -10.62393 -10.61519 -10.59151 -10.59105
 Alpha  occ. eigenvalues --  -10.59031 -10.57819 -10.57426 -10.56842 -10.56650
 Alpha  occ. eigenvalues --  -10.56066 -10.55767 -10.55500 -10.54965 -10.54914
 Alpha  occ. eigenvalues --  -10.54857 -10.54578 -10.54540 -10.54489 -10.53760
 Alpha  occ. eigenvalues --  -10.53749 -10.53557 -10.53137 -10.52989 -10.52631
 Alpha  occ. eigenvalues --  -10.52540  -8.41347  -6.33585  -6.33492  -6.33412
 Alpha  occ. eigenvalues --   -1.19123  -1.17924  -1.12945  -1.10320  -1.09849
 Alpha  occ. eigenvalues --   -1.09159  -1.06189  -0.97549  -0.95251  -0.94817
 Alpha  occ. eigenvalues --   -0.92189  -0.89858  -0.88593  -0.88022  -0.85014
 Alpha  occ. eigenvalues --   -0.84959  -0.83648  -0.83504  -0.83301  -0.80206
 Alpha  occ. eigenvalues --   -0.79110  -0.76362  -0.75665  -0.74670  -0.70944
 Alpha  occ. eigenvalues --   -0.70191  -0.69059  -0.68732  -0.68365  -0.67994
 Alpha  occ. eigenvalues --   -0.65762  -0.64724  -0.63952  -0.63429  -0.61641
 Alpha  occ. eigenvalues --   -0.60276  -0.59402  -0.58962  -0.58363  -0.56173
 Alpha  occ. eigenvalues --   -0.55458  -0.55159  -0.55061  -0.54050  -0.53668
 Alpha  occ. eigenvalues --   -0.53436  -0.53081  -0.52363  -0.51976  -0.51727
 Alpha  occ. eigenvalues --   -0.51157  -0.51002  -0.50611  -0.50206  -0.49830
 Alpha  occ. eigenvalues --   -0.49613  -0.49456  -0.48844  -0.48361  -0.48004
 Alpha  occ. eigenvalues --   -0.47768  -0.47169  -0.46973  -0.46915  -0.45945
 Alpha  occ. eigenvalues --   -0.45854  -0.45249  -0.43960  -0.43649  -0.43420
 Alpha  occ. eigenvalues --   -0.42756  -0.42442  -0.42260  -0.41913  -0.41893
 Alpha  occ. eigenvalues --   -0.41158  -0.40835  -0.40582  -0.39922  -0.39520
 Alpha  occ. eigenvalues --   -0.39369  -0.39188  -0.38733  -0.38377  -0.37820
 Alpha  occ. eigenvalues --   -0.37348  -0.36252  -0.35906  -0.35373  -0.35108
 Alpha  occ. eigenvalues --   -0.34410  -0.33143  -0.32106  -0.31707  -0.31506
 Alpha  occ. eigenvalues --   -0.29839  -0.28888  -0.28320  -0.27512  -0.25430
 Alpha virt. eigenvalues --   -0.01022   0.00645   0.03326   0.03807   0.09091
 Alpha virt. eigenvalues --    0.10134   0.10933   0.11771   0.13005   0.13442
 Alpha virt. eigenvalues --    0.13835   0.14218   0.15171   0.15516   0.15743

 Mulliken charges:
               1
     1  C   -0.303961
     2  C   -0.304192
     3  C   -0.309772
     4  C   -0.073427
     5  C    0.062130
     6  C   -0.305255
     7  H    0.165841
     8  H    0.160901
     9  H    0.159165
    10  H    0.146562
    11  H    0.156640
    12  H    0.213063
    13  H    0.141481
    14  H    0.179738
    15  H    0.148932
    16  H    0.151091
    17  N   -0.424574
    18  C    0.100388
    19  C    0.084206
    20  C   -0.227963
    21  H    0.205400
    22  C   -0.227231
    23  H    0.264218
    24  C    0.428524
    25  H    0.188266
    26  H    0.206819
    27  N   -0.529276
    28  C   -0.157142
    29  H    0.178412
    30  H    0.199156
    31  C   -0.147287
    32  H    0.169528
    33  H    0.196295
    34  N   -0.755067
    35  S    1.249302
    36  O   -0.646940
    37  O   -0.670602
    38  C    0.048870
    39  C   -0.177191
    40  C   -0.186999
    41  C   -0.170046
    42  C   -0.162336
    43  C   -0.197541
    44  H    0.202088
    45  H    0.139505
    46  H    0.156416
    47  H    0.161780
    48  H    0.156410
    49  O   -0.710677
    50  H    0.480513
    51  C    0.644774
    52  O   -0.523548
    53  O   -0.644431
    54  H    0.485698
    55  C   -0.367032
    56  H    0.199992
    57  H    0.163916
    58  C   -0.068700
    59  H    0.128754
    60  H    0.160053
    61  C   -0.655867
    62  H    0.218390
    63  H    0.188205
    64  H    0.208109
    65  C   -0.286985
    66  H    0.143182
    67  H    0.167743
    68  C   -0.480425
    69  H    0.158324
    70  H    0.158647
    71  H    0.149782
    72  C   -0.337424
    73  H    0.183992
    74  H    0.170074
    75  C   -0.335619
    76  H    0.182888
    77  H    0.173345
 Sum of Mulliken charges =  -0.00000

 Dipole moment (field-independent basis, Debye):
    X=              1.5662    Y=             -0.4127    Z=             -6.4947  Tot=              6.6936
 Quadrupole moment (field-independent basis, Debye-Ang):
   XX=           -197.8640   YY=           -223.5104   ZZ=           -221.6693
   XY=            -12.1227   XZ=             -1.4088   YZ=             12.3031

 Normal termination of Gaussian 16 at Fri Feb  8 00:59:58 2019.
