 Gaussian 16, Revision A.03,
 Gaussian 16:  ES64L-G16RevA.03 25-Dec-2016

 ------------------------------------------
 #p M062X/6-31G* em=gd3 force int=ultrafine
 ------------------------------------------

 -----
 Title
 -----
 Symbolic Z-matrix:
 Charge =  0 Multiplicity = 1

                         Standard orientation:
 ---------------------------------------------------------------------
 Center     Atomic      Atomic             Coordinates (Angstroms)
 Number     Number       Type             X           Y           Z
 ---------------------------------------------------------------------
      1          6           0       -4.851116    0.542517   -0.526035
      2          6           0       -5.028472   -0.730799   -1.358210
      3          6           0       -3.688936   -1.187556   -1.948725
      4          6           0       -2.700747   -1.434450   -0.813126
      5          6           0       -2.494326   -0.146236    0.020065
      6          6           0       -3.828283    0.339989    0.594884
      7          1           0       -3.805818   -2.094526   -2.551325
      8          1           0       -5.437791   -1.529884   -0.726272
      9          1           0       -5.746501   -0.563052   -2.166968
     10          1           0       -4.506024    1.354615   -1.180613
     11          1           0       -5.811849    0.854822   -0.104358
     12          1           0       -3.093318   -2.216546   -0.155130
     13          1           0       -2.135219    0.623789   -0.675236
     14          1           0       -4.200332   -0.388876    1.323167
     15          1           0       -3.643801    1.283341    1.121645
     16          1           0       -3.317467   -0.390969   -2.607303
     17          7           0       -1.371698   -1.907851   -1.255787
     18          6           0       -0.685475   -1.239825   -2.220787
     19          6           0       -0.678790   -2.724472   -0.418688
     20          6           0        0.665227   -1.336972   -2.355121
     21          1           0       -1.272435   -0.597298   -2.864279
     22          6           0        0.673549   -2.861461   -0.480803
     23          1           0       -1.265410   -3.223325    0.344947
     24          6           0        1.424437   -2.081519   -1.403184
     25          1           0        1.153377   -0.777215   -3.141839
     26          1           0        1.155962   -3.482483    0.260633
     27          7           0        2.752154   -2.058452   -1.379669
     28          6           0        3.490553   -2.585581   -0.221199
     29          1           0        3.342975   -3.665263   -0.127193
     30          1           0        3.126020   -2.066704    0.676546
     31          6           0        3.525887   -1.012709   -2.071335
     32          1           0        3.779112   -1.346209   -3.085490
     33          1           0        2.938009   -0.092825   -2.101292
     34          7           0       -1.411523   -0.290362    0.976238
     35         16           0       -1.439518   -1.186669    2.337048
     36          8           0       -2.668545   -1.982837    2.307306
     37          8           0       -0.163985   -1.891192    2.471006
     38          6           0       -0.534889    2.686739   -0.061770
     39          6           0       -0.032781    2.071063   -1.216083
     40          6           0       -0.737145    2.156475   -2.416550
     41          6           0       -1.957805    2.828322   -2.483459
     42          6           0       -2.470082    3.427819   -1.334259
     43          6           0       -1.758324    3.358198   -0.137015
     44          1           0        0.885793    1.488994   -1.131175
     45          1           0       -0.325438    1.695446   -3.312384
     46          1           0       -2.501662    2.890997   -3.421918
     47          1           0       -3.421078    3.951992   -1.370397
     48          1           0       -2.163081    3.830245    0.756085
     49          8           0        0.652670    1.352945    1.644376
     50          1           0       -0.540955    0.271535    0.898801
     51          6           0        2.054982    0.726563    1.192257
     52          8           0        1.934290    0.177884    0.038115
     53          8           0        2.246120   -0.157900    2.271707
     54          1           0        1.564406   -0.846392    2.166631
     55          6           0        3.114449    1.832107    1.349745
     56          1           0        2.856770    2.487629    2.191053
     57          1           0        4.041625    1.320779    1.639995
     58          6           0        0.222889    2.626964    1.259439
     59          1           0       -0.452958    2.998528    2.045847
     60          1           0        1.062312    3.336847    1.225717
     61          6           0       -1.490049   -0.000358    3.661896
     62          1           0       -0.608563    0.633532    3.522580
     63          1           0       -2.416096    0.570783    3.580864
     64          1           0       -1.444000   -0.545380    4.605990
     65          6           0        3.371966    2.637072    0.078162
     66          1           0        3.712244    1.952930   -0.707475
     67          1           0        2.441621    3.073185   -0.304638
     68          6           0        4.399962    3.743773    0.300449
     69          1           0        4.605249    4.299025   -0.620038
     70          1           0        4.046624    4.459334    1.051472
     71          1           0        5.347348    3.330316    0.663933
     72          6           0        4.933768   -2.201932   -0.525941
     73          1           0        5.543869   -2.167536    0.378552
     74          1           0        5.380838   -2.920705   -1.221932
     75          6           0        4.762381   -0.834186   -1.188068
     76          1           0        4.517253   -0.093826   -0.421324
     77          1           0        5.636763   -0.504768   -1.753446
 ---------------------------------------------------------------------

 SCF Done:  E(RM062X) =  -1991.35552349     A.U. after   15 cycles

 The electronic state is 1-A.
 Alpha  occ. eigenvalues --  -90.14684 -19.62342 -19.62027 -19.58479 -19.57202
 Alpha  occ. eigenvalues --  -19.50869 -14.85174 -14.80055 -14.76355 -10.63161
 Alpha  occ. eigenvalues --  -10.62606 -10.62348 -10.62121 -10.61065 -10.59832
 Alpha  occ. eigenvalues --  -10.57788 -10.57759 -10.57673 -10.56999 -10.56972
 Alpha  occ. eigenvalues --  -10.56867 -10.56369 -10.55857 -10.55116 -10.55067
 Alpha  occ. eigenvalues --  -10.55037 -10.54885 -10.54684 -10.54679 -10.54674
 Alpha  occ. eigenvalues --  -10.54433 -10.54067 -10.53118 -10.51116 -10.51013
 Alpha  occ. eigenvalues --  -10.49643  -8.45658  -6.37885  -6.37833  -6.37709
 Alpha  occ. eigenvalues --   -1.22479  -1.13444  -1.12808  -1.10680  -1.08888
 Alpha  occ. eigenvalues --   -1.06001  -1.02350  -1.00313  -0.95813  -0.95206
 Alpha  occ. eigenvalues --   -0.93469  -0.90112  -0.88571  -0.86505  -0.85409
 Alpha  occ. eigenvalues --   -0.84886  -0.84845  -0.83733  -0.83311  -0.83031
 Alpha  occ. eigenvalues --   -0.76564  -0.76041  -0.75556  -0.74157  -0.73229
 Alpha  occ. eigenvalues --   -0.71743  -0.68226  -0.68126  -0.67749  -0.67478
 Alpha  occ. eigenvalues --   -0.66413  -0.65476  -0.64880  -0.63329  -0.60516
 Alpha  occ. eigenvalues --   -0.60372  -0.59944  -0.59392  -0.57949  -0.57683
 Alpha  occ. eigenvalues --   -0.57155  -0.56373  -0.55636  -0.55057  -0.54378
 Alpha  occ. eigenvalues --   -0.53548  -0.53045  -0.52649  -0.52434  -0.52152
 Alpha  occ. eigenvalues --   -0.51665  -0.50829  -0.50129  -0.49932  -0.49377
 Alpha  occ. eigenvalues --   -0.49237  -0.48912  -0.48508  -0.48195  -0.48031
 Alpha  occ. eigenvalues --   -0.47699  -0.47646  -0.47152  -0.46225  -0.45842
 Alpha  occ. eigenvalues --   -0.45348  -0.45176  -0.44390  -0.44085  -0.43185
 Alpha  occ. eigenvalues --   -0.42465  -0.42335  -0.41206  -0.40884  -0.40753
 Alpha  occ. eigenvalues --   -0.40653  -0.40401  -0.40151  -0.39850  -0.39430
 Alpha  occ. eigenvalues --   -0.39101  -0.38931  -0.38716  -0.38289  -0.37746
 Alpha  occ. eigenvalues --   -0.37457  -0.36531  -0.36442  -0.36026  -0.35034
 Alpha  occ. eigenvalues --   -0.34577  -0.34300  -0.31884  -0.31267  -0.30007
 Alpha  occ. eigenvalues --   -0.29260  -0.28800  -0.27787  -0.24472  -0.24110
 Alpha virt. eigenvalues --   -0.01238   0.00579   0.03212   0.03598   0.10171
 Alpha virt. eigenvalues --    0.10597   0.11360   0.12560   0.13166   0.13329
 Alpha virt. eigenvalues --    0.14160   0.14411   0.15074   0.15535   0.15537

 Mulliken charges:
               1
     1  C   -0.306562
     2  C   -0.307791
     3  C   -0.311461
     4  C   -0.060673
     5  C    0.065692
     6  C   -0.306838
     7  H    0.175380
     8  H    0.163240
     9  H    0.166726
    10  H    0.151673
    11  H    0.164836
    12  H    0.207643
    13  H    0.174247
    14  H    0.192102
    15  H    0.160373
    16  H    0.156608
    17  N   -0.437272
    18  C    0.080602
    19  C    0.081222
    20  C   -0.211112
    21  H    0.202845
    22  C   -0.221439
    23  H    0.244001
    24  C    0.448707
    25  H    0.192081
    26  H    0.209716
    27  N   -0.518339
    28  C   -0.164270
    29  H    0.167281
    30  H    0.220026
    31  C   -0.145151
    32  H    0.160480
    33  H    0.205408
    34  N   -0.812850
    35  S    1.237449
    36  O   -0.604112
    37  O   -0.591970
    38  C    0.049343
    39  C   -0.197524
    40  C   -0.192723
    41  C   -0.172578
    42  C   -0.165166
    43  C   -0.205363
    44  H    0.235431
    45  H    0.141155
    46  H    0.156233
    47  H    0.159851
    48  H    0.154401
    49  O   -0.604662
    50  H    0.451549
    51  C    0.714185
    52  O   -0.683482
    53  O   -0.700415
    54  H    0.432914
    55  C   -0.339810
    56  H    0.144513
    57  H    0.151063
    58  C   -0.078549
    59  H    0.129715
    60  H    0.155896
    61  C   -0.666357
    62  H    0.266414
    63  H    0.200329
    64  H    0.223107
    65  C   -0.285133
    66  H    0.143025
    67  H    0.140864
    68  C   -0.475219
    69  H    0.148492
    70  H    0.149092
    71  H    0.148816
    72  C   -0.334201
    73  H    0.184224
    74  H    0.160171
    75  C   -0.338561
    76  H    0.205693
    77  H    0.164772
 Sum of Mulliken charges =  -0.00000

 Dipole moment (field-independent basis, Debye):
    X=             -3.5008    Y=             -1.4743    Z=             -5.7249  Tot=              6.8705
 Quadrupole moment (field-independent basis, Debye-Ang):
   XX=           -208.3648   YY=           -222.7730   ZZ=           -218.1119
   XY=            -13.5355   XZ=             -4.2471   YZ=             10.7882

 Normal termination of Gaussian 16 at Thu Feb  7 09:23:53 2019.
