 Gaussian 16, Revision A.03,
 Gaussian 16:  ES64L-G16RevA.03 25-Dec-2016

 ------------------------------------------
 #p M062X/6-31G* em=gd3 force int=ultrafine
 ------------------------------------------

 -----
 Title
 -----
 Symbolic Z-matrix:
 Charge =  0 Multiplicity = 1

                         Standard orientation:
 ---------------------------------------------------------------------
 Center     Atomic      Atomic             Coordinates (Angstroms)
 Number     Number       Type             X           Y           Z
 ---------------------------------------------------------------------
      1          6           0       -4.782151    0.370846   -0.600616
      2          6           0       -4.941512   -0.920913   -1.408011
      3          6           0       -3.599217   -1.359845   -2.006115
      4          6           0       -2.600927   -1.556611   -0.871265
      5          6           0       -2.394660   -0.237859   -0.081148
      6          6           0       -3.733435    0.223213    0.506347
      7          1           0       -3.702696   -2.283710   -2.585276
      8          1           0       -5.324347   -1.718281   -0.757597
      9          1           0       -5.673690   -0.782924   -2.209777
     10          1           0       -4.476794    1.179849   -1.276919
     11          1           0       -5.743402    0.661689   -0.164503
     12          1           0       -2.981329   -2.318085   -0.183405
     13          1           0       -2.075860    0.521170   -0.807100
     14          1           0       -4.076842   -0.501541    1.252053
     15          1           0       -3.572576    1.182265    1.010012
     16          1           0       -3.251984   -0.571716   -2.687889
     17          7           0       -1.266982   -2.027698   -1.298121
     18          6           0       -0.581758   -1.357253   -2.261692
     19          6           0       -0.568712   -2.795999   -0.419217
     20          6           0        0.775677   -1.396453   -2.348170
     21          1           0       -1.176588   -0.759384   -2.941150
     22          6           0        0.789693   -2.862961   -0.425073
     23          1           0       -1.159983   -3.298206    0.338811
     24          6           0        1.528750   -2.057511   -1.332088
     25          1           0        1.264806   -0.840374   -3.136244
     26          1           0        1.276007   -3.432437    0.354172
     27          7           0        2.848140   -1.932150   -1.239329
     28          6           0        3.571221   -2.332030   -0.021705
     29          1           0        3.468644   -3.406597    0.152762
     30          1           0        3.155205   -1.764859    0.824363
     31          6           0        3.571898   -0.884793   -1.970891
     32          1           0        3.825643   -1.237779   -2.977983
     33          1           0        2.936284    0.002371   -2.039339
     34          7           0       -1.289316   -0.317642    0.860473
     35         16           0       -1.357985   -1.160918    2.252600
     36          8           0       -2.547486   -2.018182    2.220865
     37          8           0       -0.061787   -1.808502    2.473784
     38          6           0       -0.633947    2.700646    0.055207
     39          6           0       -0.159577    2.238131   -1.182410
     40          6           0       -0.951521    2.326308   -2.325440
     41          6           0       -2.235181    2.869975   -2.265517
     42          6           0       -2.720476    3.325843   -1.043190
     43          6           0       -1.921740    3.242053    0.097808
     44          1           0        0.810554    1.756728   -1.220569
     45          1           0       -0.556747    1.973907   -3.276108
     46          1           0       -2.846614    2.942753   -3.160810
     47          1           0       -3.717495    3.752638   -0.975766
     48          1           0       -2.308205    3.613309    1.045102
     49          8           0        0.679441    1.568394    1.909804
     50          1           0       -0.299244   -0.068356    0.556120
     51          6           0        1.808251    0.835768    1.264373
     52          8           0        1.394924    0.228291    0.169681
     53          8           0        2.199434   -0.047606    2.300230
     54          1           0        1.498594   -0.724214    2.336961
     55          6           0        3.018799    1.798248    1.129326
     56          1           0        2.988972    2.518625    1.956871
     57          1           0        3.906233    1.179397    1.312536
     58          6           0        0.216749    2.755781    1.327356
     59          1           0       -0.403645    3.231836    2.097743
     60          1           0        1.054733    3.444952    1.146212
     61          6           0       -1.549762    0.055402    3.534745
     62          1           0       -0.689903    0.725249    3.446291
     63          1           0       -2.488978    0.584369    3.363880
     64          1           0       -1.565514   -0.468721    4.491717
     65          6           0        3.196832    2.519441   -0.203763
     66          1           0        3.129546    1.786210   -1.014493
     67          1           0        2.385582    3.232565   -0.385978
     68          6           0        4.534028    3.255495   -0.275690
     69          1           0        4.664713    3.770597   -1.232353
     70          1           0        4.610277    4.003266    0.520232
     71          1           0        5.371266    2.559507   -0.149943
     72          6           0        5.006618   -1.918721   -0.327991
     73          1           0        5.592695   -1.781097    0.582523
     74          1           0        5.496005   -2.678836   -0.946721
     75          6           0        4.814374   -0.619825   -1.115051
     76          1           0        4.594031    0.193688   -0.419572
     77          1           0        5.681411   -0.340146   -1.717252
 ---------------------------------------------------------------------

 SCF Done:  E(RM062X) =  -1991.35886823     A.U. after   14 cycles

 The electronic state is 1-A.
 Alpha  occ. eigenvalues --  -90.14083 -19.61701 -19.61683 -19.58767 -19.56735
 Alpha  occ. eigenvalues --  -19.51377 -14.85137 -14.80455 -14.75538 -10.63396
 Alpha  occ. eigenvalues --  -10.62770 -10.62317 -10.62106 -10.60673 -10.59247
 Alpha  occ. eigenvalues --  -10.58635 -10.57952 -10.57895 -10.57093 -10.56876
 Alpha  occ. eigenvalues --  -10.56662 -10.55620 -10.55577 -10.55159 -10.54966
 Alpha  occ. eigenvalues --  -10.54797 -10.54733 -10.54679 -10.54529 -10.54359
 Alpha  occ. eigenvalues --  -10.54282 -10.54236 -10.53105 -10.51624 -10.51535
 Alpha  occ. eigenvalues --  -10.49777  -8.45061  -6.37277  -6.37256  -6.37099
 Alpha  occ. eigenvalues --   -1.21913  -1.13640  -1.13487  -1.10166  -1.09353
 Alpha  occ. eigenvalues --   -1.05907  -1.01623  -0.99391  -0.95697  -0.94956
 Alpha  occ. eigenvalues --   -0.93464  -0.90258  -0.88752  -0.85896  -0.85820
 Alpha  occ. eigenvalues --   -0.84801  -0.84664  -0.84298  -0.83031  -0.82629
 Alpha  occ. eigenvalues --   -0.76647  -0.76353  -0.75832  -0.74400  -0.72726
 Alpha  occ. eigenvalues --   -0.71586  -0.68331  -0.68274  -0.67925  -0.67162
 Alpha  occ. eigenvalues --   -0.66764  -0.65204  -0.64871  -0.63520  -0.60578
 Alpha  occ. eigenvalues --   -0.60405  -0.59797  -0.58882  -0.57822  -0.57560
 Alpha  occ. eigenvalues --   -0.57140  -0.56426  -0.55726  -0.55160  -0.54173
 Alpha  occ. eigenvalues --   -0.53480  -0.52638  -0.52405  -0.52370  -0.51889
 Alpha  occ. eigenvalues --   -0.51531  -0.51070  -0.50918  -0.49848  -0.49595
 Alpha  occ. eigenvalues --   -0.49158  -0.48809  -0.48202  -0.48110  -0.48072
 Alpha  occ. eigenvalues --   -0.47632  -0.47435  -0.46896  -0.46466  -0.46094
 Alpha  occ. eigenvalues --   -0.44912  -0.44686  -0.44099  -0.43884  -0.43251
 Alpha  occ. eigenvalues --   -0.42459  -0.42090  -0.41509  -0.41412  -0.41172
 Alpha  occ. eigenvalues --   -0.40881  -0.40451  -0.40012  -0.39843  -0.39445
 Alpha  occ. eigenvalues --   -0.39253  -0.39047  -0.38454  -0.37896  -0.37582
 Alpha  occ. eigenvalues --   -0.37367  -0.36726  -0.36575  -0.35690  -0.34881
 Alpha  occ. eigenvalues --   -0.34360  -0.33901  -0.31720  -0.31003  -0.29737
 Alpha  occ. eigenvalues --   -0.28888  -0.28575  -0.27595  -0.24976  -0.24511
 Alpha virt. eigenvalues --   -0.01454   0.00460   0.03593   0.03804   0.10176
 Alpha virt. eigenvalues --    0.11049   0.11618   0.12120   0.13212   0.13552
 Alpha virt. eigenvalues --    0.14200   0.14671   0.14791   0.15305   0.15599

 Mulliken charges:
               1
     1  C   -0.306120
     2  C   -0.306936
     3  C   -0.309961
     4  C   -0.059414
     5  C    0.057221
     6  C   -0.311885
     7  H    0.173751
     8  H    0.162790
     9  H    0.165200
    10  H    0.150803
    11  H    0.162988
    12  H    0.208513
    13  H    0.172599
    14  H    0.193332
    15  H    0.163430
    16  H    0.153851
    17  N   -0.431640
    18  C    0.069092
    19  C    0.064010
    20  C   -0.204170
    21  H    0.206886
    22  C   -0.208960
    23  H    0.245801
    24  C    0.448848
    25  H    0.191154
    26  H    0.211735
    27  N   -0.528004
    28  C   -0.174155
    29  H    0.169862
    30  H    0.234427
    31  C   -0.154142
    32  H    0.167704
    33  H    0.201616
    34  N   -0.817074
    35  S    1.253933
    36  O   -0.612060
    37  O   -0.608819
    38  C    0.089108
    39  C   -0.179385
    40  C   -0.189118
    41  C   -0.170657
    42  C   -0.163678
    43  C   -0.212152
    44  H    0.205162
    45  H    0.141040
    46  H    0.154691
    47  H    0.158409
    48  H    0.152367
    49  O   -0.548240
    50  H    0.449509
    51  C    0.727399
    52  O   -0.724205
    53  O   -0.718227
    54  H    0.445643
    55  C   -0.338064
    56  H    0.149995
    57  H    0.149498
    58  C   -0.093911
    59  H    0.141162
    60  H    0.146964
    61  C   -0.662846
    62  H    0.271510
    63  H    0.196294
    64  H    0.217365
    65  C   -0.295532
    66  H    0.140902
    67  H    0.146879
    68  C   -0.475350
    69  H    0.149348
    70  H    0.156046
    71  H    0.143892
    72  C   -0.331806
    73  H    0.187564
    74  H    0.163448
    75  C   -0.343966
    76  H    0.195135
    77  H    0.171607
 Sum of Mulliken charges =  -0.00000

 Dipole moment (field-independent basis, Debye):
    X=             -2.2373    Y=             -1.8509    Z=             -6.4628  Tot=              7.0851
 Quadrupole moment (field-independent basis, Debye-Ang):
   XX=           -205.0549   YY=           -223.2617   ZZ=           -219.7655
   XY=            -12.1161   XZ=             -5.3466   YZ=             10.0708

 Normal termination of Gaussian 16 at Thu Feb  7 16:29:42 2019.
