 Gaussian 16, Revision A.03,
 Gaussian 16:  ES64L-G16RevA.03 25-Dec-2016

 ------------------------------------------
 #p M062X/6-31G* em=gd3 force int=ultrafine
 ------------------------------------------

 -----
 Title
 -----
 Symbolic Z-matrix:
 Charge =  0 Multiplicity = 1

                         Standard orientation:
 ---------------------------------------------------------------------
 Center     Atomic      Atomic             Coordinates (Angstroms)
 Number     Number       Type             X           Y           Z
 ---------------------------------------------------------------------
      1          6           0       -4.824071    0.467400   -0.526247
      2          6           0       -5.022755   -0.846894   -1.287427
      3          6           0       -3.700486   -1.331372   -1.894196
      4          6           0       -2.681701   -1.509293   -0.774025
      5          6           0       -2.442956   -0.173070   -0.027158
      6          6           0       -3.760860    0.333086    0.569004
      7          1           0       -3.831162   -2.272240   -2.439309
      8          1           0       -5.409391   -1.614490   -0.604223
      9          1           0       -5.766417   -0.721390   -2.080651
     10          1           0       -4.512712    1.247479   -1.233738
     11          1           0       -5.772165    0.792489   -0.085664
     12          1           0       -3.056677   -2.246877   -0.057535
     13          1           0       -2.123325    0.559493   -0.779309
     14          1           0       -4.105851   -0.359590    1.343639
     15          1           0       -3.571194    1.304176    1.039077
     16          1           0       -3.351927   -0.573997   -2.609225
     17          7           0       -1.364045   -2.009072   -1.218576
     18          6           0       -0.684005   -1.356579   -2.199322
     19          6           0       -0.665181   -2.792096   -0.354300
     20          6           0        0.669040   -1.430842   -2.318146
     21          1           0       -1.278739   -0.740743   -2.862449
     22          6           0        0.689722   -2.903490   -0.399740
     23          1           0       -1.249030   -3.269974    0.424873
     24          6           0        1.429884   -2.124097   -1.329459
     25          1           0        1.155009   -0.883173   -3.114388
     26          1           0        1.179064   -3.486373    0.367499
     27          7           0        2.754470   -2.049095   -1.279304
     28          6           0        3.497075   -2.516535   -0.098819
     29          1           0        3.366350   -3.593588    0.038078
     30          1           0        3.122416   -1.967636    0.777495
     31          6           0        3.493669   -0.994044   -1.989415
     32          1           0        3.736575   -1.326347   -3.006358
     33          1           0        2.877446   -0.091565   -2.018690
     34          7           0       -1.322217   -0.241112    0.898965
     35         16           0       -1.348099   -1.061763    2.312906
     36          8           0       -2.578698   -1.856852    2.346500
     37          8           0       -0.074123   -1.765066    2.474673
     38          6           0       -0.543720    2.651627   -0.067680
     39          6           0       -0.070242    2.104094   -1.270222
     40          6           0       -0.839547    2.168772   -2.431050
     41          6           0       -2.096853    2.772490   -2.424888
     42          6           0       -2.578906    3.317234   -1.237371
     43          6           0       -1.805015    3.255640   -0.078240
     44          1           0        0.878625    1.577266   -1.258255
     45          1           0       -0.445726    1.748627   -3.354562
     46          1           0       -2.689205    2.825120   -3.334245
     47          1           0       -3.554517    3.794909   -1.212136
     48          1           0       -2.190767    3.691702    0.841198
     49          8           0        0.741785    1.525540    1.807903
     50          1           0       -0.358985   -0.005187    0.575612
     51          6           0        1.924289    0.807128    1.210485
     52          8           0        1.571664    0.193335    0.106934
     53          8           0        2.273805   -0.065863    2.270739
     54          1           0        1.573069   -0.742988    2.276306
     55          6           0        3.105957    1.806751    1.137278
     56          1           0        3.007831    2.523728    1.963100
     57          1           0        4.012808    1.229169    1.357176
     58          6           0        0.275714    2.711102    1.226287
     59          1           0       -0.374328    3.170091    1.983444
     60          1           0        1.104801    3.418465    1.073766
     61          6           0       -1.413549    0.181971    3.580839
     62          1           0       -0.524158    0.802972    3.440479
     63          1           0       -2.331914    0.756500    3.448723
     64          1           0       -1.407947   -0.329933    4.544659
     65          6           0        3.302713    2.544563   -0.184538
     66          1           0        3.498762    1.816893   -0.981064
     67          1           0        2.389990    3.068067   -0.488273
     68          6           0        4.451133    3.548777   -0.096617
     69          1           0        4.620239    4.062177   -1.048169
     70          1           0        4.239637    4.310670    0.662103
     71          1           0        5.384860    3.052810    0.191920
     72          6           0        4.933774   -2.125877   -0.424667
     73          1           0        5.549958   -2.053669    0.473258
     74          1           0        5.383845   -2.861863   -1.100299
     75          6           0        4.743006   -0.782202   -1.130314
     76          1           0        4.518652   -0.016686   -0.382617
     77          1           0        5.606086   -0.465556   -1.719638
 ---------------------------------------------------------------------

 SCF Done:  E(RM062X) =  -1991.35742489     A.U. after   14 cycles

 The electronic state is 1-A.
 Alpha  occ. eigenvalues --  -90.14464 -19.62046 -19.61980 -19.58551 -19.56631
 Alpha  occ. eigenvalues --  -19.50864 -14.85261 -14.80351 -14.76355 -10.63380
 Alpha  occ. eigenvalues --  -10.62778 -10.62256 -10.62052 -10.60902 -10.59600
 Alpha  occ. eigenvalues --  -10.58229 -10.57969 -10.57909 -10.57176 -10.56902
 Alpha  occ. eigenvalues --  -10.56797 -10.55781 -10.55767 -10.54998 -10.54941
 Alpha  occ. eigenvalues --  -10.54888 -10.54781 -10.54628 -10.54608 -10.54484
 Alpha  occ. eigenvalues --  -10.54432 -10.54358 -10.52991 -10.51308 -10.51266
 Alpha  occ. eigenvalues --  -10.49516  -8.45439  -6.37661  -6.37630  -6.37474
 Alpha  occ. eigenvalues --   -1.22268  -1.13625  -1.13257  -1.10520  -1.09253
 Alpha  occ. eigenvalues --   -1.05743  -1.02079  -0.99171  -0.95839  -0.95013
 Alpha  occ. eigenvalues --   -0.93553  -0.90317  -0.88750  -0.86138  -0.85559
 Alpha  occ. eigenvalues --   -0.84843  -0.84776  -0.84094  -0.83073  -0.82873
 Alpha  occ. eigenvalues --   -0.76695  -0.76084  -0.75786  -0.74265  -0.72988
 Alpha  occ. eigenvalues --   -0.71751  -0.68298  -0.68159  -0.67917  -0.67365
 Alpha  occ. eigenvalues --   -0.66652  -0.65326  -0.64835  -0.63524  -0.60506
 Alpha  occ. eigenvalues --   -0.60378  -0.59695  -0.59395  -0.57749  -0.57690
 Alpha  occ. eigenvalues --   -0.57267  -0.56476  -0.55820  -0.55143  -0.54248
 Alpha  occ. eigenvalues --   -0.53604  -0.52784  -0.52581  -0.52501  -0.51945
 Alpha  occ. eigenvalues --   -0.51588  -0.50933  -0.50512  -0.49922  -0.49426
 Alpha  occ. eigenvalues --   -0.49134  -0.48939  -0.48220  -0.48123  -0.47887
 Alpha  occ. eigenvalues --   -0.47764  -0.47532  -0.47019  -0.46320  -0.46051
 Alpha  occ. eigenvalues --   -0.44990  -0.44734  -0.44237  -0.43813  -0.43276
 Alpha  occ. eigenvalues --   -0.42587  -0.42182  -0.41271  -0.41196  -0.41000
 Alpha  occ. eigenvalues --   -0.40849  -0.40553  -0.39978  -0.39769  -0.39245
 Alpha  occ. eigenvalues --   -0.39208  -0.39100  -0.38400  -0.38137  -0.37732
 Alpha  occ. eigenvalues --   -0.37330  -0.36689  -0.36464  -0.35904  -0.34946
 Alpha  occ. eigenvalues --   -0.34414  -0.34085  -0.31754  -0.31210  -0.29802
 Alpha  occ. eigenvalues --   -0.28879  -0.28603  -0.27712  -0.24433  -0.24120
 Alpha virt. eigenvalues --   -0.01476   0.00385   0.03494   0.03716   0.10118
 Alpha virt. eigenvalues --    0.10805   0.11530   0.12337   0.13147   0.13372
 Alpha virt. eigenvalues --    0.14212   0.14381   0.14736   0.15288   0.15584

 Mulliken charges:
               1
     1  C   -0.306351
     2  C   -0.307403
     3  C   -0.309519
     4  C   -0.059473
     5  C    0.055495
     6  C   -0.310341
     7  H    0.174656
     8  H    0.163063
     9  H    0.166157
    10  H    0.150683
    11  H    0.164316
    12  H    0.208092
    13  H    0.174533
    14  H    0.194853
    15  H    0.163394
    16  H    0.155216
    17  N   -0.433064
    18  C    0.069348
    19  C    0.066251
    20  C   -0.202536
    21  H    0.205657
    22  C   -0.210830
    23  H    0.243929
    24  C    0.447307
    25  H    0.192426
    26  H    0.211166
    27  N   -0.524071
    28  C   -0.169233
    29  H    0.168989
    30  H    0.226582
    31  C   -0.152585
    32  H    0.163527
    33  H    0.206786
    34  N   -0.808428
    35  S    1.249329
    36  O   -0.607782
    37  O   -0.601392
    38  C    0.075900
    39  C   -0.189253
    40  C   -0.190797
    41  C   -0.172333
    42  C   -0.164338
    43  C   -0.210486
    44  H    0.219465
    45  H    0.140260
    46  H    0.154988
    47  H    0.158526
    48  H    0.152260
    49  O   -0.558371
    50  H    0.444252
    51  C    0.720372
    52  O   -0.717821
    53  O   -0.715997
    54  H    0.439823
    55  C   -0.338069
    56  H    0.146838
    57  H    0.150578
    58  C   -0.087007
    59  H    0.137279
    60  H    0.149215
    61  C   -0.664121
    62  H    0.276657
    63  H    0.197339
    64  H    0.218789
    65  C   -0.289479
    66  H    0.134095
    67  H    0.144664
    68  C   -0.473526
    69  H    0.148325
    70  H    0.152537
    71  H    0.146946
    72  C   -0.332697
    73  H    0.186422
    74  H    0.162040
    75  C   -0.341874
    76  H    0.200055
    77  H    0.169796
 Sum of Mulliken charges =  -0.00000

 Dipole moment (field-independent basis, Debye):
    X=             -2.9890    Y=             -2.1362    Z=             -6.1448  Tot=              7.1593
 Quadrupole moment (field-independent basis, Debye-Ang):
   XX=           -206.7806   YY=           -221.8189   ZZ=           -220.0919
   XY=            -12.7666   XZ=             -4.7501   YZ=             10.2598

 Normal termination of Gaussian 16 at Thu Feb  7 12:50:02 2019.
