 Gaussian 16, Revision A.03,
 Gaussian 16:  ES64L-G16RevA.03 25-Dec-2016

 ------------------------------------------
 #p M062X/6-31G* em=gd3 force int=ultrafine
 ------------------------------------------

 -----
 Title
 -----
 Symbolic Z-matrix:
 Charge =  0 Multiplicity = 1

                         Standard orientation:
 ---------------------------------------------------------------------
 Center     Atomic      Atomic             Coordinates (Angstroms)
 Number     Number       Type             X           Y           Z
 ---------------------------------------------------------------------
      1          6           0       -4.841868    0.488001   -0.519750
      2          6           0       -5.001923   -0.781762   -1.360852
      3          6           0       -3.655284   -1.217716   -1.950834
      4          6           0       -2.667712   -1.459867   -0.813688
      5          6           0       -2.475988   -0.174919    0.028717
      6          6           0       -3.818635    0.290982    0.602200
      7          1           0       -3.759512   -2.122079   -2.559836
      8          1           0       -5.402933   -1.590301   -0.735622
      9          1           0       -5.719814   -0.617486   -2.170525
     10          1           0       -4.505208    1.308354   -1.168426
     11          1           0       -5.807548    0.785829   -0.098772
     12          1           0       -3.052961   -2.250786   -0.162168
     13          1           0       -2.126767    0.602730   -0.663298
     14          1           0       -4.183188   -0.447167    1.325266
     15          1           0       -3.648076    1.233827    1.134803
     16          1           0       -3.292405   -0.411793   -2.602867
     17          7           0       -1.332328   -1.916935   -1.256847
     18          6           0       -0.654471   -1.240917   -2.220406
     19          6           0       -0.632281   -2.729672   -0.423368
     20          6           0        0.697244   -1.328605   -2.359382
     21          1           0       -1.247583   -0.599553   -2.859337
     22          6           0        0.721428   -2.858268   -0.490687
     23          1           0       -1.213312   -3.233889    0.341066
     24          6           0        1.463450   -2.072704   -1.414063
     25          1           0        1.178663   -0.762954   -3.146040
     26          1           0        1.209896   -3.478146    0.247808
     27          7           0        2.792921   -2.038498   -1.392674
     28          6           0        3.536334   -2.565050   -0.237603
     29          1           0        3.403777   -3.647423   -0.152898
     30          1           0        3.162560   -2.063423    0.666046
     31          6           0        3.556832   -0.983240   -2.080819
     32          1           0        3.815739   -1.311464   -3.095098
     33          1           0        2.960181   -0.068974   -2.113964
     34          7           0       -1.386723   -0.318782    0.978019
     35         16           0       -1.424337   -1.220436    2.331763
     36          8           0       -2.627378   -2.056327    2.281970
     37          8           0       -0.131655   -1.893176    2.486795
     38          6           0       -0.610875    2.721775   -0.064895
     39          6           0       -0.078436    2.086755   -1.194856
     40          6           0       -0.751177    2.149935   -2.414346
     41          6           0       -1.975540    2.810795   -2.520981
     42          6           0       -2.520276    3.424439   -1.394538
     43          6           0       -1.836147    3.382388   -0.180001
     44          1           0        0.840446    1.510162   -1.083002
     45          1           0       -0.315256    1.678229   -3.293048
     46          1           0       -2.497750    2.853270   -3.472690
     47          1           0       -3.475645    3.937578   -1.461253
     48          1           0       -2.265016    3.863337    0.696886
     49          8           0        0.550977    1.382972    1.619632
     50          1           0       -0.565509    0.348896    0.993462
     51          6           0        2.103713    0.706174    1.193235
     52          8           0        1.991736    0.173558    0.054422
     53          8           0        2.210444   -0.134101    2.291835
     54          1           0        1.539444   -0.832157    2.170530
     55          6           0        3.078308    1.869164    1.388462
     56          1           0        2.747719    2.501420    2.220108
     57          1           0        4.026359    1.415481    1.709526
     58          6           0        0.115186    2.657003    1.273152
     59          1           0       -0.580485    3.025384    2.048124
     60          1           0        0.949224    3.378698    1.260980
     61          6           0       -1.525356   -0.040839    3.660876
     62          1           0       -0.669186    0.627484    3.520783
     63          1           0       -2.471990    0.495417    3.577686
     64          1           0       -1.460298   -0.583332    4.605180
     65          6           0        3.321143    2.686331    0.122948
     66          1           0        3.690492    2.017224   -0.662879
     67          1           0        2.377857    3.091730   -0.260964
     68          6           0        4.311585    3.823969    0.357693
     69          1           0        4.501544    4.391395   -0.558509
     70          1           0        3.932880    4.522447    1.112148
     71          1           0        5.270933    3.438518    0.720643
     72          6           0        4.975373   -2.159278   -0.534753
     73          1           0        5.581230   -2.119114    0.372369
     74          1           0        5.435246   -2.870192   -1.230191
     75          6           0        4.790661   -0.792524   -1.195847
     76          1           0        4.541432   -0.052718   -0.429904
     77          1           0        5.662366   -0.455477   -1.760745
 ---------------------------------------------------------------------

 SCF Done:  E(RM062X) =  -1991.35534495     A.U. after   15 cycles

 The electronic state is 1-A.
 Alpha  occ. eigenvalues --  -90.14287 -19.62048 -19.61719 -19.58390 -19.56778
 Alpha  occ. eigenvalues --  -19.52708 -14.85230 -14.80227 -14.75600 -10.63285
 Alpha  occ. eigenvalues --  -10.63057 -10.62678 -10.62176 -10.60932 -10.59529
 Alpha  occ. eigenvalues --  -10.58090 -10.58000 -10.57859 -10.57065 -10.56751
 Alpha  occ. eigenvalues --  -10.56258 -10.56092 -10.55728 -10.54970 -10.54920
 Alpha  occ. eigenvalues --  -10.54900 -10.54844 -10.54747 -10.54479 -10.54397
 Alpha  occ. eigenvalues --  -10.54396 -10.54061 -10.53059 -10.51327 -10.51290
 Alpha  occ. eigenvalues --  -10.50232  -8.45276  -6.37499  -6.37447  -6.37332
 Alpha  occ. eigenvalues --   -1.22100  -1.13488  -1.13250  -1.10303  -1.09059
 Alpha  occ. eigenvalues --   -1.05283  -1.02393  -1.01758  -0.95747  -0.94950
 Alpha  occ. eigenvalues --   -0.93476  -0.90176  -0.88657  -0.86231  -0.85821
 Alpha  occ. eigenvalues --   -0.84756  -0.84411  -0.84003  -0.83136  -0.82780
 Alpha  occ. eigenvalues --   -0.76626  -0.76507  -0.75668  -0.73218  -0.72964
 Alpha  occ. eigenvalues --   -0.71665  -0.68245  -0.68031  -0.67840  -0.67301
 Alpha  occ. eigenvalues --   -0.66510  -0.65302  -0.64684  -0.63362  -0.60482
 Alpha  occ. eigenvalues --   -0.60326  -0.59791  -0.59445  -0.57821  -0.57729
 Alpha  occ. eigenvalues --   -0.57183  -0.56338  -0.55454  -0.54731  -0.54125
 Alpha  occ. eigenvalues --   -0.53473  -0.52807  -0.52487  -0.52204  -0.51708
 Alpha  occ. eigenvalues --   -0.51516  -0.51102  -0.50438  -0.50034  -0.49610
 Alpha  occ. eigenvalues --   -0.49143  -0.48910  -0.48367  -0.48164  -0.48053
 Alpha  occ. eigenvalues --   -0.47756  -0.47402  -0.46959  -0.46744  -0.46012
 Alpha  occ. eigenvalues --   -0.45203  -0.45086  -0.44649  -0.44092  -0.43195
 Alpha  occ. eigenvalues --   -0.42461  -0.42289  -0.41238  -0.41165  -0.40944
 Alpha  occ. eigenvalues --   -0.40498  -0.40487  -0.40146  -0.40010  -0.39488
 Alpha  occ. eigenvalues --   -0.39201  -0.38924  -0.38584  -0.38071  -0.37777
 Alpha  occ. eigenvalues --   -0.37430  -0.36848  -0.36599  -0.35789  -0.35117
 Alpha  occ. eigenvalues --   -0.34875  -0.34254  -0.32309  -0.30758  -0.29749
 Alpha  occ. eigenvalues --   -0.28709  -0.28359  -0.27879  -0.25769  -0.24777
 Alpha virt. eigenvalues --   -0.01323   0.00493   0.03385   0.03888   0.10218
 Alpha virt. eigenvalues --    0.10754   0.11484   0.12361   0.13286   0.13370
 Alpha virt. eigenvalues --    0.14150   0.14463   0.15203   0.15488   0.15605

 Mulliken charges:
               1
     1  C   -0.306774
     2  C   -0.307521
     3  C   -0.311615
     4  C   -0.062479
     5  C    0.066973
     6  C   -0.306898
     7  H    0.174369
     8  H    0.162951
     9  H    0.166160
    10  H    0.152418
    11  H    0.164135
    12  H    0.208743
    13  H    0.172970
    14  H    0.190199
    15  H    0.160243
    16  H    0.156780
    17  N   -0.435247
    18  C    0.084933
    19  C    0.085509
    20  C   -0.214601
    21  H    0.204025
    22  C   -0.223647
    23  H    0.246352
    24  C    0.444518
    25  H    0.192265
    26  H    0.209432
    27  N   -0.519494
    28  C   -0.162320
    29  H    0.169426
    30  H    0.215383
    31  C   -0.145843
    32  H    0.162726
    33  H    0.204077
    34  N   -0.817126
    35  S    1.238992
    36  O   -0.607208
    37  O   -0.600002
    38  C    0.051661
    39  C   -0.198804
    40  C   -0.192009
    41  C   -0.173811
    42  C   -0.164160
    43  C   -0.205871
    44  H    0.229937
    45  H    0.139035
    46  H    0.155077
    47  H    0.158944
    48  H    0.154235
    49  O   -0.637831
    50  H    0.454155
    51  C    0.697723
    52  O   -0.642157
    53  O   -0.685811
    54  H    0.443068
    55  C   -0.338255
    56  H    0.156109
    57  H    0.150648
    58  C   -0.062372
    59  H    0.117194
    60  H    0.142817
    61  C   -0.668793
    62  H    0.265844
    63  H    0.199579
    64  H    0.221714
    65  C   -0.287333
    66  H    0.142943
    67  H    0.146824
    68  C   -0.476044
    69  H    0.150227
    70  H    0.151212
    71  H    0.148650
    72  C   -0.334731
    73  H    0.184512
    74  H    0.162046
    75  C   -0.337696
    76  H    0.202260
    77  H    0.166460
 Sum of Mulliken charges =  -0.00000

 Dipole moment (field-independent basis, Debye):
    X=             -2.6671    Y=             -1.7251    Z=             -5.8644  Tot=              6.6694
 Quadrupole moment (field-independent basis, Debye-Ang):
   XX=           -205.9220   YY=           -223.9182   ZZ=           -218.4646
   XY=            -13.2158   XZ=             -3.9560   YZ=             10.6437

 Normal termination of Gaussian 16 at Thu Feb  7 18:31:12 2019.
