 Gaussian 16, Revision A.03,
 Gaussian 16:  ES64L-G16RevA.03 25-Dec-2016

 ------------------------------------------
 #p M062X/6-31G* em=gd3 force int=ultrafine
 ------------------------------------------

 -----
 Title
 -----
 Symbolic Z-matrix:
 Charge =  0 Multiplicity = 1

                         Standard orientation:
 ---------------------------------------------------------------------
 Center     Atomic      Atomic             Coordinates (Angstroms)
 Number     Number       Type             X           Y           Z
 ---------------------------------------------------------------------
      1          6           0       -4.857830    0.328755   -0.485115
      2          6           0       -4.983264   -0.949181   -1.319944
      3          6           0       -3.626124   -1.351292   -1.911207
      4          6           0       -2.631678   -1.551801   -0.772438
      5          6           0       -2.462137   -0.253250    0.064219
      6          6           0       -3.824185    0.167729    0.633438
      7          1           0       -3.709634   -2.261106   -2.516401
      8          1           0       -5.357598   -1.764856   -0.687670
      9          1           0       -5.708646   -0.811857   -2.128573
     10          1           0       -4.545303    1.153530   -1.141332
     11          1           0       -5.832912    0.603198   -0.068718
     12          1           0       -2.984187   -2.350355   -0.111989
     13          1           0       -2.180173    0.521921   -0.665145
     14          1           0       -4.160272   -0.575019    1.367106
     15          1           0       -3.681118    1.119475    1.159397
     16          1           0       -3.290356   -0.538709   -2.570212
     17          7           0       -1.279057   -1.967787   -1.217397
     18          6           0       -0.631074   -1.287022   -2.192082
     19          6           0       -0.551994   -2.739348   -0.374388
     20          6           0        0.724527   -1.344325   -2.346472
     21          1           0       -1.246250   -0.665762   -2.830131
     22          6           0        0.807177   -2.845212   -0.464337
     23          1           0       -1.109811   -3.234252    0.413366
     24          6           0        1.516306   -2.068303   -1.411610
     25          1           0        1.181759   -0.776234   -3.146086
     26          1           0        1.315759   -3.436202    0.284319
     27          7           0        2.855813   -2.002351   -1.406804
     28          6           0        3.618281   -2.500555   -0.253428
     29          1           0        3.531699   -3.587308   -0.169550
     30          1           0        3.225443   -2.037633    0.662670
     31          6           0        3.584911   -0.930256   -2.105599
     32          1           0        3.854416   -1.254733   -3.117658
     33          1           0        2.962522   -0.033324   -2.159609
     34          7           0       -1.345945   -0.320359    0.975075
     35         16           0       -1.357741   -1.211578    2.282904
     36          8           0       -2.458081   -2.198132    2.319082
     37          8           0        0.006190   -1.770423    2.484345
     38          6           0       -0.812246    2.793817   -0.090581
     39          6           0       -0.212911    2.136869   -1.173394
     40          6           0       -0.845918    2.129708   -2.415100
     41          6           0       -2.091838    2.736176   -2.583285
     42          6           0       -2.701560    3.363165   -1.499766
     43          6           0       -2.057783    3.391717   -0.265855
     44          1           0        0.724724    1.602616   -1.028307
     45          1           0       -0.366824    1.643153   -3.262435
     46          1           0       -2.586058    2.719916   -3.550047
     47          1           0       -3.676465    3.828254   -1.608494
     48          1           0       -2.528909    3.873599    0.587282
     49          8           0        0.298560    1.585252    1.692412
     50          1           0       -0.312922    0.867616    1.306219
     51          6           0        2.430148    0.570846    1.164971
     52          8           0        2.094898    0.164604    0.067907
     53          8           0        2.278869   -0.131200    2.283620
     54          1           0        1.541627   -0.787580    2.177965
     55          6           0        3.154327    1.880649    1.379571
     56          1           0        2.615081    2.417833    2.167055
     57          1           0        4.148793    1.653059    1.786150
     58          6           0       -0.160607    2.830563    1.274666
     59          1           0       -0.877050    3.255057    1.995939
     60          1           0        0.708164    3.506193    1.257704
     61          6           0       -1.559695   -0.080369    3.658866
     62          1           0       -0.759839    0.657544    3.560588
     63          1           0       -2.536631    0.400569    3.579975
     64          1           0       -1.469424   -0.632941    4.594814
     65          6           0        3.276087    2.724137    0.112287
     66          1           0        3.665859    2.104467   -0.703839
     67          1           0        2.281620    3.049435   -0.215016
     68          6           0        4.176469    3.939549    0.321029
     69          1           0        4.300769    4.510335   -0.603812
     70          1           0        3.762619    4.614366    1.077851
     71          1           0        5.171073    3.631724    0.661551
     72          6           0        5.042741   -2.036486   -0.541830
     73          1           0        5.638966   -1.958999    0.369618
     74          1           0        5.537323   -2.737917   -1.221396
     75          6           0        4.819731   -0.688951   -1.231406
     76          1           0        4.577714    0.070136   -0.482507
     77          1           0        5.679975   -0.345267   -1.809423
 ---------------------------------------------------------------------

 SCF Done:  E(RM062X) =  -1991.38049486     A.U. after   15 cycles

 The electronic state is 1-A.
 Alpha  occ. eigenvalues --  -90.10218 -19.63687 -19.60229 -19.58508 -19.58291
 Alpha  occ. eigenvalues --  -19.58254 -14.84805 -14.80411 -14.69261 -10.65922
 Alpha  occ. eigenvalues --  -10.63220 -10.62448 -10.61653 -10.59278 -10.59055
 Alpha  occ. eigenvalues --  -10.58867 -10.57833 -10.57293 -10.56773 -10.56728
 Alpha  occ. eigenvalues --  -10.55920 -10.55684 -10.55641 -10.55116 -10.55044
 Alpha  occ. eigenvalues --  -10.54951 -10.54654 -10.54619 -10.54520 -10.54012
 Alpha  occ. eigenvalues --  -10.53630 -10.53607 -10.53582 -10.53251 -10.52968
 Alpha  occ. eigenvalues --  -10.52621  -8.41168  -6.33404  -6.33315  -6.33237
 Alpha  occ. eigenvalues --   -1.19342  -1.17664  -1.12929  -1.10124  -1.09972
 Alpha  occ. eigenvalues --   -1.09047  -1.05970  -0.97585  -0.95393  -0.94739
 Alpha  occ. eigenvalues --   -0.92200  -0.89817  -0.88568  -0.88428  -0.85111
 Alpha  occ. eigenvalues --   -0.84799  -0.83739  -0.83568  -0.83277  -0.79977
 Alpha  occ. eigenvalues --   -0.79475  -0.76308  -0.75604  -0.74632  -0.70961
 Alpha  occ. eigenvalues --   -0.70310  -0.69416  -0.68653  -0.68353  -0.68123
 Alpha  occ. eigenvalues --   -0.66032  -0.64772  -0.63920  -0.63546  -0.61613
 Alpha  occ. eigenvalues --   -0.60294  -0.59384  -0.59137  -0.58360  -0.56179
 Alpha  occ. eigenvalues --   -0.55797  -0.55340  -0.55181  -0.54556  -0.53934
 Alpha  occ. eigenvalues --   -0.53484  -0.53054  -0.52660  -0.51811  -0.51634
 Alpha  occ. eigenvalues --   -0.51062  -0.50942  -0.50632  -0.49991  -0.49858
 Alpha  occ. eigenvalues --   -0.49765  -0.49519  -0.48761  -0.48315  -0.48054
 Alpha  occ. eigenvalues --   -0.47681  -0.47273  -0.47101  -0.47006  -0.45783
 Alpha  occ. eigenvalues --   -0.45491  -0.45148  -0.43990  -0.43757  -0.43495
 Alpha  occ. eigenvalues --   -0.43130  -0.42844  -0.42135  -0.41983  -0.41794
 Alpha  occ. eigenvalues --   -0.41249  -0.40934  -0.40514  -0.39897  -0.39683
 Alpha  occ. eigenvalues --   -0.39428  -0.39383  -0.39179  -0.38401  -0.38127
 Alpha  occ. eigenvalues --   -0.37441  -0.36314  -0.35838  -0.35332  -0.35151
 Alpha  occ. eigenvalues --   -0.34198  -0.32945  -0.31946  -0.31707  -0.31117
 Alpha  occ. eigenvalues --   -0.29996  -0.28739  -0.28343  -0.27270  -0.25353
 Alpha virt. eigenvalues --   -0.01085   0.00688   0.03088   0.03656   0.08773
 Alpha virt. eigenvalues --    0.10144   0.10973   0.11766   0.12971   0.13470
 Alpha virt. eigenvalues --    0.13741   0.14317   0.15008   0.15430   0.15869

 Mulliken charges:
               1
     1  C   -0.303786
     2  C   -0.304579
     3  C   -0.309781
     4  C   -0.070378
     5  C    0.070200
     6  C   -0.304852
     7  H    0.167237
     8  H    0.161684
     9  H    0.159372
    10  H    0.144518
    11  H    0.157286
    12  H    0.208041
    13  H    0.140076
    14  H    0.182910
    15  H    0.149966
    16  H    0.149788
    17  N   -0.424615
    18  C    0.096859
    19  C    0.094977
    20  C   -0.226473
    21  H    0.204433
    22  C   -0.228046
    23  H    0.257588
    24  C    0.426045
    25  H    0.187361
    26  H    0.207954
    27  N   -0.525771
    28  C   -0.159345
    29  H    0.178040
    30  H    0.197864
    31  C   -0.145197
    32  H    0.169488
    33  H    0.193599
    34  N   -0.775115
    35  S    1.244069
    36  O   -0.635101
    37  O   -0.666975
    38  C    0.052649
    39  C   -0.177268
    40  C   -0.188844
    41  C   -0.169573
    42  C   -0.160284
    43  C   -0.199935
    44  H    0.203715
    45  H    0.140088
    46  H    0.157435
    47  H    0.162618
    48  H    0.158988
    49  O   -0.718158
    50  H    0.486880
    51  C    0.669274
    52  O   -0.520569
    53  O   -0.646546
    54  H    0.481114
    55  C   -0.375752
    56  H    0.201490
    57  H    0.168170
    58  C   -0.062623
    59  H    0.125758
    60  H    0.141131
    61  C   -0.666180
    62  H    0.233493
    63  H    0.184416
    64  H    0.205201
    65  C   -0.291821
    66  H    0.147696
    67  H    0.162589
    68  C   -0.480717
    69  H    0.160183
    70  H    0.159063
    71  H    0.152346
    72  C   -0.335491
    73  H    0.184113
    74  H    0.169414
    75  C   -0.335337
    76  H    0.179374
    77  H    0.172557
 Sum of Mulliken charges =  -0.00000

 Dipole moment (field-independent basis, Debye):
    X=              1.7382    Y=              0.2512    Z=             -6.7991  Tot=              7.0223
 Quadrupole moment (field-independent basis, Debye-Ang):
   XX=           -200.5967   YY=           -222.5658   ZZ=           -222.9903
   XY=            -11.6098   XZ=              1.3579   YZ=             13.3049

 Normal termination of Gaussian 16 at Thu Feb  7 21:20:46 2019.
