 Gaussian 16, Revision A.03,
 Gaussian 16:  ES64L-G16RevA.03 25-Dec-2016

 ------------------------------------------
 #p M062X/6-31G* em=gd3 force int=ultrafine
 ------------------------------------------

 -----
 Title
 -----
 Symbolic Z-matrix:
 Charge =  0 Multiplicity = 1

                         Standard orientation:
 ---------------------------------------------------------------------
 Center     Atomic      Atomic             Coordinates (Angstroms)
 Number     Number       Type             X           Y           Z
 ---------------------------------------------------------------------
      1          6           0       -4.857143    0.333352   -0.486421
      2          6           0       -4.983371   -0.943862   -1.322253
      3          6           0       -3.626545   -1.346555   -1.913847
      4          6           0       -2.632621   -1.549074   -0.775131
      5          6           0       -2.462350   -0.251893    0.063165
      6          6           0       -3.823927    0.170552    0.632243
      7          1           0       -3.710651   -2.255687   -2.519945
      8          1           0       -5.358160   -1.759744   -0.690529
      9          1           0       -5.708675   -0.805459   -2.130753
     10          1           0       -4.543931    1.158448   -1.141901
     11          1           0       -5.832071    0.608133   -0.069913
     12          1           0       -2.985787   -2.347957   -0.115410
     13          1           0       -2.178487    0.523981   -0.664745
     14          1           0       -4.160971   -0.572094    1.365526
     15          1           0       -3.679729    1.121894    1.158675
     16          1           0       -3.289873   -0.533564   -2.571914
     17          7           0       -1.280062   -1.965450   -1.220071
     18          6           0       -0.631210   -1.283936   -2.193671
     19          6           0       -0.553767   -2.738422   -0.377672
     20          6           0        0.724418   -1.341880   -2.347577
     21          1           0       -1.245673   -0.661441   -2.831208
     22          6           0        0.805395   -2.844983   -0.467145
     23          1           0       -1.112179   -3.234271    0.409062
     24          6           0        1.515389   -2.067295   -1.413147
     25          1           0        1.182349   -0.773156   -3.146354
     26          1           0        1.313314   -3.437273    0.280939
     27          7           0        2.854931   -2.001910   -1.407611
     28          6           0        3.616602   -2.501045   -0.254087
     29          1           0        3.529070   -3.587717   -0.170410
     30          1           0        3.223934   -2.037882    0.661972
     31          6           0        3.584717   -0.929298   -2.104958
     32          1           0        3.854432   -1.252771   -3.117278
     33          1           0        2.962747   -0.032023   -2.158172
     34          7           0       -1.347071   -0.322844    0.974476
     35         16           0       -1.360784   -1.213544    2.282716
     36          8           0       -2.463880   -2.196908    2.319296
     37          8           0        0.001935   -1.775452    2.483413
     38          6           0       -0.807359    2.792171   -0.088254
     39          6           0       -0.209416    2.136772   -1.172796
     40          6           0       -0.843424    2.132479   -2.414000
     41          6           0       -2.088982    2.740323   -2.579941
     42          6           0       -2.697038    3.366277   -1.494881
     43          6           0       -2.052168    3.392064   -0.261500
     44          1           0        0.727755    1.601259   -1.029370
     45          1           0       -0.365605    1.646828   -3.262584
     46          1           0       -2.584279    2.725843   -3.546166
     47          1           0       -3.671618    3.832414   -1.601892
     48          1           0       -2.521880    3.872936    0.592983
     49          8           0        0.298252    1.575873    1.691810
     50          1           0       -0.315282    0.859991    1.303454
     51          6           0        2.428811    0.569668    1.165249
     52          8           0        2.094795    0.163508    0.067520
     53          8           0        2.278004   -0.133627    2.283565
     54          1           0        1.540630   -0.789553    2.177540
     55          6           0        3.152659    1.879460    1.380809
     56          1           0        2.614283    2.416748    2.168860
     57          1           0        4.146791    1.650434    1.787239
     58          6           0       -0.155849    2.823645    1.277143
     59          1           0       -0.870829    3.248867    1.999391
     60          1           0        0.715491    3.495904    1.262051
     61          6           0       -1.558639   -0.080928    3.658144
     62          1           0       -0.757116    0.654919    3.557944
     63          1           0       -2.534518    0.402338    3.580270
     64          1           0       -1.468224   -0.632942    4.594395
     65          6           0        3.276476    2.723984    0.114269
     66          1           0        3.665555    2.104192   -0.702064
     67          1           0        2.283156    3.052054   -0.213777
     68          6           0        4.179487    3.937167    0.324985
     69          1           0        4.306227    4.508501   -0.599190
     70          1           0        3.766473    4.612372    1.081932
     71          1           0        5.172952    3.626628    0.666367
     72          6           0        5.041454   -2.037990   -0.542082
     73          1           0        5.637945   -1.962130    0.369321
     74          1           0        5.535185   -2.739048   -1.222643
     75          6           0        4.819296   -0.689485   -1.230010
     76          1           0        4.577117    0.068624   -0.480163
     77          1           0        5.679859   -0.345215   -1.807188
 ---------------------------------------------------------------------

 SCF Done:  E(RM062X) =  -1991.38017934     A.U. after   15 cycles

 The electronic state is 1-A.
 Alpha  occ. eigenvalues --  -90.10219 -19.63691 -19.60227 -19.58472 -19.58293
 Alpha  occ. eigenvalues --  -19.58249 -14.84806 -14.80409 -14.69260 -10.65937
 Alpha  occ. eigenvalues --  -10.63220 -10.62449 -10.61658 -10.59281 -10.59052
 Alpha  occ. eigenvalues --  -10.58864 -10.57833 -10.57281 -10.56773 -10.56729
 Alpha  occ. eigenvalues --  -10.55918 -10.55683 -10.55642 -10.55118 -10.55046
 Alpha  occ. eigenvalues --  -10.54952 -10.54651 -10.54620 -10.54519 -10.54013
 Alpha  occ. eigenvalues --  -10.53644 -10.53608 -10.53594 -10.53243 -10.52976
 Alpha  occ. eigenvalues --  -10.52622  -8.41169  -6.33405  -6.33316  -6.33238
 Alpha  occ. eigenvalues --   -1.19332  -1.17663  -1.12929  -1.10119  -1.09956
 Alpha  occ. eigenvalues --   -1.09044  -1.05971  -0.97594  -0.95394  -0.94740
 Alpha  occ. eigenvalues --   -0.92203  -0.89816  -0.88569  -0.88436  -0.85109
 Alpha  occ. eigenvalues --   -0.84796  -0.83742  -0.83570  -0.83278  -0.79975
 Alpha  occ. eigenvalues --   -0.79484  -0.76308  -0.75604  -0.74626  -0.70963
 Alpha  occ. eigenvalues --   -0.70316  -0.69423  -0.68652  -0.68353  -0.68124
 Alpha  occ. eigenvalues --   -0.66034  -0.64774  -0.63921  -0.63549  -0.61615
 Alpha  occ. eigenvalues --   -0.60295  -0.59386  -0.59139  -0.58359  -0.56182
 Alpha  occ. eigenvalues --   -0.55807  -0.55342  -0.55183  -0.54568  -0.53935
 Alpha  occ. eigenvalues --   -0.53486  -0.53054  -0.52661  -0.51808  -0.51633
 Alpha  occ. eigenvalues --   -0.51063  -0.50942  -0.50634  -0.49988  -0.49863
 Alpha  occ. eigenvalues --   -0.49766  -0.49519  -0.48761  -0.48315  -0.48055
 Alpha  occ. eigenvalues --   -0.47670  -0.47277  -0.47102  -0.47006  -0.45782
 Alpha  occ. eigenvalues --   -0.45488  -0.45146  -0.43994  -0.43761  -0.43497
 Alpha  occ. eigenvalues --   -0.43143  -0.42844  -0.42134  -0.41972  -0.41791
 Alpha  occ. eigenvalues --   -0.41252  -0.40934  -0.40514  -0.39898  -0.39687
 Alpha  occ. eigenvalues --   -0.39433  -0.39387  -0.39187  -0.38402  -0.38130
 Alpha  occ. eigenvalues --   -0.37446  -0.36317  -0.35838  -0.35333  -0.35143
 Alpha  occ. eigenvalues --   -0.34193  -0.32942  -0.31942  -0.31710  -0.31095
 Alpha  occ. eigenvalues --   -0.29999  -0.28728  -0.28342  -0.27266  -0.25357
 Alpha virt. eigenvalues --   -0.01086   0.00689   0.03086   0.03655   0.08768
 Alpha virt. eigenvalues --    0.10143   0.10972   0.11764   0.12972   0.13466
 Alpha virt. eigenvalues --    0.13739   0.14318   0.15011   0.15427   0.15869

 Mulliken charges:
               1
     1  C   -0.303775
     2  C   -0.304609
     3  C   -0.309753
     4  C   -0.070247
     5  C    0.070371
     6  C   -0.304875
     7  H    0.167256
     8  H    0.161716
     9  H    0.159382
    10  H    0.144488
    11  H    0.157315
    12  H    0.207945
    13  H    0.140098
    14  H    0.183081
    15  H    0.149946
    16  H    0.149782
    17  N   -0.424647
    18  C    0.096820
    19  C    0.095366
    20  C   -0.226484
    21  H    0.204421
    22  C   -0.228104
    23  H    0.257395
    24  C    0.426015
    25  H    0.187358
    26  H    0.207961
    27  N   -0.525695
    28  C   -0.159360
    29  H    0.178022
    30  H    0.197865
    31  C   -0.145161
    32  H    0.169471
    33  H    0.193582
    34  N   -0.775839
    35  S    1.243895
    36  O   -0.634760
    37  O   -0.666817
    38  C    0.052711
    39  C   -0.177405
    40  C   -0.188833
    41  C   -0.169597
    42  C   -0.160268
    43  C   -0.199932
    44  H    0.203718
    45  H    0.140104
    46  H    0.157443
    47  H    0.162624
    48  H    0.159017
    49  O   -0.718199
    50  H    0.486988
    51  C    0.669921
    52  O   -0.520801
    53  O   -0.646569
    54  H    0.480952
    55  C   -0.375845
    56  H    0.201345
    57  H    0.168309
    58  C   -0.062500
    59  H    0.125612
    60  H    0.140772
    61  C   -0.666381
    62  H    0.233819
    63  H    0.184342
    64  H    0.205168
    65  C   -0.291927
    66  H    0.147792
    67  H    0.162674
    68  C   -0.480734
    69  H    0.160226
    70  H    0.159093
    71  H    0.152370
    72  C   -0.335433
    73  H    0.184086
    74  H    0.169398
    75  C   -0.335309
    76  H    0.179285
    77  H    0.172542
 Sum of Mulliken charges =  -0.00000

 Dipole moment (field-independent basis, Debye):
    X=              1.7477    Y=              0.2675    Z=             -6.8010  Tot=              7.0271
 Quadrupole moment (field-independent basis, Debye-Ang):
   XX=           -200.6438   YY=           -222.5846   ZZ=           -222.9938
   XY=            -11.6084   XZ=              1.4115   YZ=             13.3312

 Normal termination of Gaussian 16 at Thu Feb  7 21:17:26 2019.
