 Gaussian 16, Revision A.03,
 Gaussian 16:  ES64L-G16RevA.03 25-Dec-2016

 ------------------------------------------
 #p M062X/6-31G* em=gd3 force int=ultrafine
 ------------------------------------------

 -----
 Title
 -----
 Symbolic Z-matrix:
 Charge =  0 Multiplicity = 1

                         Standard orientation:
 ---------------------------------------------------------------------
 Center     Atomic      Atomic             Coordinates (Angstroms)
 Number     Number       Type             X           Y           Z
 ---------------------------------------------------------------------
      1          6           0       -4.783623    0.315847   -0.670098
      2          6           0       -4.915582   -0.994593   -1.451854
      3          6           0       -3.559121   -1.429260   -2.019947
      4          6           0       -2.575200   -1.589754   -0.866870
      5          6           0       -2.397371   -0.252952   -0.100374
      6          6           0       -3.751417    0.202782    0.456133
      7          1           0       -3.642233   -2.366150   -2.581281
      8          1           0       -5.298818   -1.782447   -0.790216
      9          1           0       -5.636843   -0.882810   -2.267503
     10          1           0       -4.476636    1.113996   -1.358545
     11          1           0       -5.754918    0.604729   -0.255424
     12          1           0       -2.956005   -2.342069   -0.169118
     13          1           0       -2.075536    0.495304   -0.836277
     14          1           0       -4.098575   -0.511833    1.209658
     15          1           0       -3.610682    1.172987    0.943973
     16          1           0       -3.211749   -0.651055   -2.712887
     17          7           0       -1.230175   -2.053121   -1.266154
     18          6           0       -0.544641   -1.406331   -2.245133
     19          6           0       -0.531479   -2.789440   -0.360394
     20          6           0        0.813441   -1.439480   -2.324089
     21          1           0       -1.139801   -0.834136   -2.945960
     22          6           0        0.827314   -2.845134   -0.355992
     23          1           0       -1.123706   -3.275547    0.407274
     24          6           0        1.565466   -2.063944   -1.284674
     25          1           0        1.302669   -0.904888   -3.126770
     26          1           0        1.313578   -3.386624    0.443080
     27          7           0        2.884208   -1.929999   -1.192225
     28          6           0        3.607554   -2.289906    0.037709
     29          1           0        3.507283   -3.358933    0.244789
     30          1           0        3.189137   -1.699393    0.866689
     31          6           0        3.607374   -0.908915   -1.959672
     32          1           0        3.859177   -1.295807   -2.954768
     33          1           0        2.972495   -0.023999   -2.059862
     34          7           0       -1.306374   -0.300041    0.860024
     35         16           0       -1.389389   -1.115474    2.267398
     36          8           0       -2.573659   -1.980077    2.239804
     37          8           0       -0.093412   -1.752567    2.519640
     38          6           0       -0.650732    2.705820    0.034988
     39          6           0       -0.177429    2.245784   -1.203976
     40          6           0       -0.976719    2.319994   -2.342693
     41          6           0       -2.267491    2.846296   -2.276393
     42          6           0       -2.752454    3.297799   -1.052434
     43          6           0       -1.945667    3.228800    0.083970
     44          1           0        0.798729    1.777980   -1.247139
     45          1           0       -0.583015    1.969933   -3.294562
     46          1           0       -2.885255    2.908129   -3.168188
     47          1           0       -3.755839    3.709359   -0.979626
     48          1           0       -2.331725    3.596684    1.032938
     49          8           0        0.669080    1.597982    1.899462
     50          1           0       -0.311338   -0.056137    0.558510
     51          6           0        1.788155    0.852400    1.255211
     52          8           0        1.364763    0.238533    0.167975
     53          8           0        2.180481   -0.023427    2.297191
     54          1           0        1.468430   -0.687143    2.356196
     55          6           0        3.006955    1.802455    1.103564
     56          1           0        2.988669    2.530532    1.924591
     57          1           0        3.889348    1.175115    1.287229
     58          6           0        0.208524    2.778259    1.300206
     59          1           0       -0.404044    3.270488    2.066480
     60          1           0        1.049203    3.459016    1.102244
     61          6           0       -1.602965    0.127479    3.520310
     62          1           0       -0.743753    0.797708    3.429001
     63          1           0       -2.541241    0.649509    3.324763
     64          1           0       -1.630190   -0.375215    4.488446
     65          6           0        3.185599    2.508353   -0.237497
     66          1           0        3.101016    1.767540   -1.040267
     67          1           0        2.383650    3.232247   -0.421029
     68          6           0        4.533107    3.225095   -0.326231
     69          1           0        4.662427    3.728150   -1.289647
     70          1           0        4.625285    3.980095    0.461777
     71          1           0        5.363133    2.520392   -0.199243
     72          6           0        5.042855   -1.885287   -0.281676
     73          1           0        5.627717   -1.714154    0.623937
     74          1           0        5.534219   -2.666537   -0.871708
     75          6           0        4.851993   -0.615799   -1.115931
     76          1           0        4.636959    0.224372   -0.451288
     77          1           0        5.718685   -0.361439   -1.729716
 ---------------------------------------------------------------------

 SCF Done:  E(RM062X) =  -1991.35894356     A.U. after   14 cycles

 The electronic state is 1-A.
 Alpha  occ. eigenvalues --  -90.14050 -19.61670 -19.61655 -19.58794 -19.56738
 Alpha  occ. eigenvalues --  -19.51391 -14.85119 -14.80458 -14.75459 -10.63376
 Alpha  occ. eigenvalues --  -10.62749 -10.62322 -10.62056 -10.60649 -10.59206
 Alpha  occ. eigenvalues --  -10.58730 -10.57908 -10.57876 -10.57051 -10.56858
 Alpha  occ. eigenvalues --  -10.56654 -10.55601 -10.55582 -10.55197 -10.55050
 Alpha  occ. eigenvalues --  -10.54757 -10.54712 -10.54640 -10.54484 -10.54320
 Alpha  occ. eigenvalues --  -10.54243 -10.54185 -10.53103 -10.51682 -10.51583
 Alpha  occ. eigenvalues --  -10.49809  -8.45030  -6.37245  -6.37224  -6.37068
 Alpha  occ. eigenvalues --   -1.21883  -1.13667  -1.13460  -1.10131  -1.09358
 Alpha  occ. eigenvalues --   -1.05904  -1.01582  -0.99417  -0.95674  -0.94919
 Alpha  occ. eigenvalues --   -0.93454  -0.90227  -0.88755  -0.85909  -0.85810
 Alpha  occ. eigenvalues --   -0.84776  -0.84639  -0.84335  -0.83000  -0.82600
 Alpha  occ. eigenvalues --   -0.76637  -0.76366  -0.75829  -0.74395  -0.72701
 Alpha  occ. eigenvalues --   -0.71558  -0.68344  -0.68293  -0.67902  -0.67141
 Alpha  occ. eigenvalues --   -0.66756  -0.65183  -0.64864  -0.63520  -0.60573
 Alpha  occ. eigenvalues --   -0.60406  -0.59794  -0.58825  -0.57842  -0.57539
 Alpha  occ. eigenvalues --   -0.57122  -0.56418  -0.55690  -0.55155  -0.54165
 Alpha  occ. eigenvalues --   -0.53442  -0.52625  -0.52386  -0.52346  -0.51861
 Alpha  occ. eigenvalues --   -0.51517  -0.51090  -0.50950  -0.49839  -0.49590
 Alpha  occ. eigenvalues --   -0.49156  -0.48801  -0.48206  -0.48105  -0.48065
 Alpha  occ. eigenvalues --   -0.47615  -0.47421  -0.46889  -0.46470  -0.46088
 Alpha  occ. eigenvalues --   -0.44929  -0.44653  -0.44070  -0.43878  -0.43245
 Alpha  occ. eigenvalues --   -0.42434  -0.42072  -0.41572  -0.41438  -0.41199
 Alpha  occ. eigenvalues --   -0.40874  -0.40438  -0.40017  -0.39856  -0.39516
 Alpha  occ. eigenvalues --   -0.39238  -0.39038  -0.38434  -0.37872  -0.37579
 Alpha  occ. eigenvalues --   -0.37348  -0.36731  -0.36564  -0.35675  -0.34869
 Alpha  occ. eigenvalues --   -0.34335  -0.33874  -0.31756  -0.30957  -0.29700
 Alpha  occ. eigenvalues --   -0.28882  -0.28538  -0.27558  -0.24994  -0.24524
 Alpha virt. eigenvalues --   -0.01397   0.00504   0.03629   0.03847   0.10214
 Alpha virt. eigenvalues --    0.11064   0.11557   0.12080   0.13214   0.13545
 Alpha virt. eigenvalues --    0.14214   0.14679   0.14821   0.15371   0.15599

 Mulliken charges:
               1
     1  C   -0.306053
     2  C   -0.306878
     3  C   -0.310334
     4  C   -0.058993
     5  C    0.056931
     6  C   -0.311739
     7  H    0.173724
     8  H    0.162876
     9  H    0.165062
    10  H    0.150451
    11  H    0.162883
    12  H    0.208356
    13  H    0.172401
    14  H    0.193731
    15  H    0.163260
    16  H    0.153645
    17  N   -0.432726
    18  C    0.070309
    19  C    0.064801
    20  C   -0.205611
    21  H    0.207049
    22  C   -0.209293
    23  H    0.245863
    24  C    0.451493
    25  H    0.190728
    26  H    0.211774
    27  N   -0.529624
    28  C   -0.176423
    29  H    0.169944
    30  H    0.237511
    31  C   -0.154018
    32  H    0.168534
    33  H    0.200277
    34  N   -0.817286
    35  S    1.253999
    36  O   -0.611548
    37  O   -0.609689
    38  C    0.091425
    39  C   -0.177130
    40  C   -0.188777
    41  C   -0.170518
    42  C   -0.163608
    43  C   -0.212037
    44  H    0.202517
    45  H    0.141418
    46  H    0.154482
    47  H    0.158134
    48  H    0.152007
    49  O   -0.547729
    50  H    0.449757
    51  C    0.728297
    52  O   -0.724520
    53  O   -0.718286
    54  H    0.445829
    55  C   -0.337241
    56  H    0.150394
    57  H    0.147843
    58  C   -0.095074
    59  H    0.141422
    60  H    0.146648
    61  C   -0.662609
    62  H    0.270472
    63  H    0.196331
    64  H    0.217342
    65  C   -0.295894
    66  H    0.141963
    67  H    0.147049
    68  C   -0.476313
    69  H    0.149506
    70  H    0.156366
    71  H    0.144078
    72  C   -0.331888
    73  H    0.187545
    74  H    0.163780
    75  C   -0.344448
    76  H    0.194081
    77  H    0.171997
 Sum of Mulliken charges =  -0.00000

 Dipole moment (field-independent basis, Debye):
    X=             -2.0509    Y=             -1.9417    Z=             -6.4921  Tot=              7.0798
 Quadrupole moment (field-independent basis, Debye-Ang):
   XX=           -204.6241   YY=           -223.2094   ZZ=           -219.9316
   XY=            -12.0968   XZ=             -5.1892   YZ=             10.2348

 Normal termination of Gaussian 16 at Thu Feb  7 17:18:59 2019.
