 Gaussian 16, Revision A.03,
 Gaussian 16:  ES64L-G16RevA.03 25-Dec-2016

 ------------------------------------------
 #p M062X/6-31G* em=gd3 force int=ultrafine
 ------------------------------------------

 -----
 Title
 -----
 Symbolic Z-matrix:
 Charge =  0 Multiplicity = 1

                         Standard orientation:
 ---------------------------------------------------------------------
 Center     Atomic      Atomic             Coordinates (Angstroms)
 Number     Number       Type             X           Y           Z
 ---------------------------------------------------------------------
      1          6           0       -4.783046    0.433718   -0.526016
      2          6           0       -4.980237   -0.855681   -1.328838
      3          6           0       -3.658213   -1.317403   -1.954545
      4          6           0       -2.639685   -1.529287   -0.840589
      5          6           0       -2.397363   -0.214957   -0.054120
      6          6           0       -3.715404    0.268941    0.560371
      7          1           0       -3.789187   -2.240591   -2.529107
      8          1           0       -5.362511   -1.646175   -0.669699
      9          1           0       -5.726782   -0.706249   -2.115135
     10          1           0       -4.476798    1.236852   -1.209017
     11          1           0       -5.730416    0.741570   -0.071655
     12          1           0       -3.016562   -2.286070   -0.145819
     13          1           0       -2.080820    0.539812   -0.785344
     14          1           0       -4.055794   -0.449260    1.313881
     15          1           0       -3.527670    1.225626    1.059444
     16          1           0       -3.312187   -0.536794   -2.645518
     17          7           0       -1.320757   -2.017592   -1.294465
     18          6           0       -0.637120   -1.335439   -2.251766
     19          6           0       -0.622470   -2.810435   -0.438134
     20          6           0        0.718760   -1.385883   -2.351141
     21          1           0       -1.232032   -0.716063   -2.911728
     22          6           0        0.734890   -2.896106   -0.461931
     23          1           0       -1.211065   -3.316212    0.319682
     24          6           0        1.474573   -2.079673   -1.358815
     25          1           0        1.207326   -0.816405   -3.130090
     26          1           0        1.222230   -3.487292    0.300266
     27          7           0        2.795682   -1.970715   -1.276993
     28          6           0        3.526718   -2.418625   -0.081617
     29          1           0        3.413330   -3.496993    0.059296
     30          1           0        3.127371   -1.873135    0.786117
     31          6           0        3.520976   -0.900222   -1.975005
     32          1           0        3.767089   -1.217905   -2.995664
     33          1           0        2.889187   -0.008312   -2.001213
     34          7           0       -1.275083   -0.314292    0.865806
     35         16           0       -1.324231   -1.162825    2.257080
     36          8           0       -2.526100   -2.002843    2.242300
     37          8           0       -0.032178   -1.827183    2.447009
     38          6           0       -0.599979    2.687409    0.031814
     39          6           0       -0.127490    2.199697   -1.196904
     40          6           0       -0.910619    2.290611   -2.346072
     41          6           0       -2.182880    2.861287   -2.301989
     42          6           0       -2.665567    3.343840   -1.088720
     43          6           0       -1.876233    3.257317    0.058433
     44          1           0        0.832364    1.696122   -1.220659
     45          1           0       -0.517069    1.918262   -3.289696
     46          1           0       -2.786954    2.935196   -3.202104
     47          1           0       -3.653391    3.793101   -1.033244
     48          1           0       -2.261310    3.648230    0.998296
     49          8           0        0.706598    1.546556    1.886516
     50          1           0       -0.294922   -0.066115    0.552174
     51          6           0        1.851378    0.823629    1.250403
     52          8           0        1.453739    0.214993    0.152168
     53          8           0        2.235937   -0.058919    2.288795
     54          1           0        1.544279   -0.744510    2.307378
     55          6           0        3.048787    1.803338    1.134087
     56          1           0        2.995145    2.518681    1.964434
     57          1           0        3.946986    1.202469    1.323718
     58          6           0        0.238280    2.735499    1.313258
     59          1           0       -0.395263    3.196643    2.082228
     60          1           0        1.070304    3.436385    1.149192
     61          6           0       -1.475765    0.048465    3.549197
     62          1           0       -0.607503    0.705941    3.450716
     63          1           0       -2.409699    0.592399    3.397310
     64          1           0       -1.483872   -0.482246    4.502663
     65          6           0        3.224544    2.538760   -0.191410
     66          1           0        3.263604    1.806429   -1.006141
     67          1           0        2.361668    3.174947   -0.413694
     68          6           0        4.490928    3.393300   -0.195714
     69          1           0        4.629405    3.911719   -1.149517
     70          1           0        4.450160    4.150439    0.594830
     71          1           0        5.379375    2.777490   -0.012388
     72          6           0        4.962279   -2.008211   -0.389299
     73          1           0        5.562575   -1.916065    0.517576
     74          1           0        5.434101   -2.745905   -1.047735
     75          6           0        4.769230   -0.675324   -1.116377
     76          1           0        4.551433    0.105165   -0.382898
     77          1           0        5.633096   -0.370007   -1.710516
 ---------------------------------------------------------------------

 SCF Done:  E(RM062X) =  -1991.35851122     A.U. after   14 cycles

 The electronic state is 1-A.
 Alpha  occ. eigenvalues --  -90.14181 -19.61785 -19.61761 -19.58689 -19.56689
 Alpha  occ. eigenvalues --  -19.51247 -14.85170 -14.80446 -14.75761 -10.63419
 Alpha  occ. eigenvalues --  -10.62786 -10.62244 -10.62193 -10.60730 -10.59352
 Alpha  occ. eigenvalues --  -10.58453 -10.57998 -10.57950 -10.57160 -10.56897
 Alpha  occ. eigenvalues --  -10.56692 -10.55661 -10.55607 -10.55112 -10.54841
 Alpha  occ. eigenvalues --  -10.54832 -10.54791 -10.54726 -10.54574 -10.54401
 Alpha  occ. eigenvalues --  -10.54324 -10.54324 -10.53073 -10.51510 -10.51454
 Alpha  occ. eigenvalues --  -10.49691  -8.45157  -6.37374  -6.37351  -6.37194
 Alpha  occ. eigenvalues --   -1.22004  -1.13594  -1.13497  -1.10260  -1.09345
 Alpha  occ. eigenvalues --   -1.05877  -1.01742  -0.99308  -0.95746  -0.94991
 Alpha  occ. eigenvalues --   -0.93495  -0.90301  -0.88754  -0.85910  -0.85778
 Alpha  occ. eigenvalues --   -0.84825  -0.84710  -0.84234  -0.83057  -0.82698
 Alpha  occ. eigenvalues --   -0.76667  -0.76275  -0.75832  -0.74371  -0.72793
 Alpha  occ. eigenvalues --   -0.71648  -0.68327  -0.68229  -0.67941  -0.67209
 Alpha  occ. eigenvalues --   -0.66747  -0.65232  -0.64869  -0.63526  -0.60559
 Alpha  occ. eigenvalues --   -0.60403  -0.59784  -0.59027  -0.57804  -0.57597
 Alpha  occ. eigenvalues --   -0.57178  -0.56437  -0.55784  -0.55170  -0.54196
 Alpha  occ. eigenvalues --   -0.53548  -0.52659  -0.52461  -0.52435  -0.51907
 Alpha  occ. eigenvalues --   -0.51550  -0.51022  -0.50756  -0.49877  -0.49556
 Alpha  occ. eigenvalues --   -0.49162  -0.48836  -0.48207  -0.48138  -0.48016
 Alpha  occ. eigenvalues --   -0.47674  -0.47465  -0.46912  -0.46434  -0.46103
 Alpha  occ. eigenvalues --   -0.44882  -0.44738  -0.44145  -0.43867  -0.43261
 Alpha  occ. eigenvalues --   -0.42512  -0.42137  -0.41404  -0.41324  -0.41115
 Alpha  occ. eigenvalues --   -0.40903  -0.40482  -0.39992  -0.39813  -0.39315
 Alpha  occ. eigenvalues --   -0.39256  -0.39069  -0.38443  -0.37959  -0.37596
 Alpha  occ. eigenvalues --   -0.37390  -0.36744  -0.36559  -0.35742  -0.34905
 Alpha  occ. eigenvalues --   -0.34388  -0.33965  -0.31670  -0.31098  -0.29773
 Alpha  occ. eigenvalues --   -0.28881  -0.28603  -0.27647  -0.24841  -0.24403
 Alpha virt. eigenvalues --   -0.01521   0.00405   0.03551   0.03755   0.10139
 Alpha virt. eigenvalues --    0.10993   0.11652   0.12200   0.13176   0.13510
 Alpha virt. eigenvalues --    0.14214   0.14598   0.14761   0.15230   0.15600

 Mulliken charges:
               1
     1  C   -0.306265
     2  C   -0.307118
     3  C   -0.309277
     4  C   -0.060156
     5  C    0.056732
     6  C   -0.311525
     7  H    0.173970
     8  H    0.162821
     9  H    0.165494
    10  H    0.151046
    11  H    0.163321
    12  H    0.209007
    13  H    0.173017
    14  H    0.193041
    15  H    0.163588
    16  H    0.154228
    17  N   -0.430600
    18  C    0.067484
    19  C    0.063746
    20  C   -0.201928
    21  H    0.206480
    22  C   -0.209137
    23  H    0.245309
    24  C    0.446056
    25  H    0.191983
    26  H    0.211540
    27  N   -0.526170
    28  C   -0.171112
    29  H    0.169772
    30  H    0.229896
    31  C   -0.154744
    32  H    0.165829
    33  H    0.205432
    34  N   -0.815871
    35  S    1.253420
    36  O   -0.612079
    37  O   -0.606451
    38  C    0.084954
    39  C   -0.183893
    40  C   -0.189719
    41  C   -0.171120
    42  C   -0.163708
    43  C   -0.212130
    44  H    0.210924
    45  H    0.140612
    46  H    0.154912
    47  H    0.158604
    48  H    0.152485
    49  O   -0.550225
    50  H    0.448667
    51  C    0.724741
    52  O   -0.722367
    53  O   -0.718042
    54  H    0.444759
    55  C   -0.338494
    56  H    0.148914
    57  H    0.151040
    58  C   -0.091609
    59  H    0.140078
    60  H    0.147775
    61  C   -0.663269
    62  H    0.273425
    63  H    0.196300
    64  H    0.217585
    65  C   -0.293092
    66  H    0.136176
    67  H    0.146441
    68  C   -0.473366
    69  H    0.148955
    70  H    0.154681
    71  H    0.144786
    72  C   -0.331885
    73  H    0.187198
    74  H    0.162985
    75  C   -0.343260
    76  H    0.197297
    77  H    0.171104
 Sum of Mulliken charges =  -0.00000

 Dipole moment (field-independent basis, Debye):
    X=             -2.5458    Y=             -1.9103    Z=             -6.3589  Tot=              7.1110
 Quadrupole moment (field-independent basis, Debye-Ang):
   XX=           -205.7066   YY=           -222.8178   ZZ=           -219.8830
   XY=            -12.3681   XZ=             -5.3316   YZ=             10.0331

 Normal termination of Gaussian 16 at Thu Feb  7 14:54:38 2019.
