 Gaussian 16, Revision A.03,
 Gaussian 16:  ES64L-G16RevA.03 25-Dec-2016

 ------------------------------------------
 #p M062X/6-31G* em=gd3 force int=ultrafine
 ------------------------------------------

 -----
 Title
 -----
 Symbolic Z-matrix:
 Charge =  0 Multiplicity = 1

                         Standard orientation:
 ---------------------------------------------------------------------
 Center     Atomic      Atomic             Coordinates (Angstroms)
 Number     Number       Type             X           Y           Z
 ---------------------------------------------------------------------
      1          6           0       -4.862575    0.027116   -0.411013
      2          6           0       -4.880972   -1.244341   -1.265007
      3          6           0       -3.495446   -1.521472   -1.860638
      4          6           0       -2.490288   -1.652287   -0.721147
      5          6           0       -2.413037   -0.341576    0.111023
      6          6           0       -3.804529   -0.051099    0.693620
      7          1           0       -3.501070   -2.430161   -2.473433
      8          1           0       -5.184421   -2.099189   -0.646395
      9          1           0       -5.616410   -1.155789   -2.071311
     10          1           0       -4.636573    0.886858   -1.057391
     11          1           0       -5.853429    0.202333    0.021596
     12          1           0       -2.792988   -2.469609   -0.061465
     13          1           0       -2.208483    0.452113   -0.622462
     14          1           0       -4.063122   -0.834674    1.417163
     15          1           0       -3.748162    0.901055    1.235458
     16          1           0       -3.228311   -0.676934   -2.510973
     17          7           0       -1.119176   -1.989749   -1.168439
     18          6           0       -0.516092   -1.276035   -2.146455
     19          6           0       -0.356088   -2.754155   -0.352114
     20          6           0        0.837010   -1.289191   -2.328063
     21          1           0       -1.165753   -0.669238   -2.764013
     22          6           0        1.003067   -2.815495   -0.469708
     23          1           0       -0.885249   -3.273589    0.439577
     24          6           0        1.666361   -2.003401   -1.420196
     25          1           0        1.261772   -0.702090   -3.131621
     26          1           0        1.547345   -3.404562    0.255080
     27          7           0        3.002001   -1.901490   -1.446360
     28          6           0        3.814508   -2.432891   -0.345703
     29          1           0        3.759795   -3.525224   -0.315873
     30          1           0        3.437394   -2.029192    0.604451
     31          6           0        3.686214   -0.801502   -2.142359
     32          1           0        3.935157   -1.099701   -3.168334
     33          1           0        3.041135    0.080769   -2.160804
     34          7           0       -1.291789   -0.299800    1.028379
     35         16           0       -1.251898   -1.265993    2.276594
     36          8           0       -2.231050   -2.374326    2.218580
     37          8           0        0.150006   -1.705910    2.516799
     38          6           0       -1.230460    2.833337   -0.176148
     39          6           0       -0.442216    2.209323   -1.147660
     40          6           0       -0.910821    2.094867   -2.455210
     41          6           0       -2.176176    2.567296   -2.801819
     42          6           0       -2.970932    3.173410   -1.830205
     43          6           0       -2.494969    3.307153   -0.528360
     44          1           0        0.512802    1.773682   -0.859749
     45          1           0       -0.284076    1.625906   -3.210472
     46          1           0       -2.540966    2.467789   -3.819933
     47          1           0       -3.961879    3.538683   -2.084037
     48          1           0       -3.118905    3.772913    0.231743
     49          8           0        0.171878    1.963330    1.607510
     50          1           0       -0.269173    1.098469    1.364244
     51          6           0        2.430350    0.668686    1.278124
     52          8           0        2.158330    0.220352    0.176858
     53          8           0        2.148318    0.054262    2.413435
     54          1           0        1.481760   -0.675198    2.274849
     55          6           0        3.182445    1.961458    1.490956
     56          1           0        2.724674    2.464870    2.346940
     57          1           0        4.212448    1.708719    1.782187
     58          6           0       -0.731260    2.968791    1.248908
     59          1           0       -1.602097    2.998506    1.926384
     60          1           0       -0.207209    3.927012    1.363529
     61          6           0       -1.653338   -0.277110    3.714335
     62          1           0       -0.964514    0.571133    3.723442
     63          1           0       -2.685297    0.065280    3.615163
     64          1           0       -1.532220   -0.888603    4.609553
     65          6           0        3.169027    2.853086    0.256505
     66          1           0        3.583241    2.303207   -0.597384
     67          1           0        2.125492    3.071677    0.004506
     68          6           0        3.940008    4.151452    0.473506
     69          1           0        3.920170    4.780679   -0.420869
     70          1           0        3.508186    4.727783    1.298354
     71          1           0        4.988395    3.953081    0.721843
     72          6           0        5.216462   -1.916039   -0.656679
     73          1           0        5.835553   -1.851881    0.240314
     74          1           0        5.713075   -2.580288   -1.371621
     75          6           0        4.936333   -0.552978   -1.294213
     76          1           0        4.688630    0.175117   -0.515961
     77          1           0        5.771024   -0.168636   -1.883981
 ---------------------------------------------------------------------

 SCF Done:  E(RM062X) =  -1991.39063347     A.U. after   15 cycles

 The electronic state is 1-A.
 Alpha  occ. eigenvalues --  -90.10409 -19.63406 -19.60121 -19.59349 -19.58641
 Alpha  occ. eigenvalues --  -19.58389 -14.84820 -14.80541 -14.69453 -10.65449
 Alpha  occ. eigenvalues --  -10.63248 -10.62378 -10.61538 -10.59167 -10.59147
 Alpha  occ. eigenvalues --  -10.59019 -10.57812 -10.57421 -10.56863 -10.56653
 Alpha  occ. eigenvalues --  -10.56096 -10.55784 -10.55482 -10.54963 -10.54917
 Alpha  occ. eigenvalues --  -10.54854 -10.54567 -10.54533 -10.54482 -10.53812
 Alpha  occ. eigenvalues --  -10.53728 -10.53560 -10.53112 -10.52903 -10.52654
 Alpha  occ. eigenvalues --  -10.52480  -8.41376  -6.33613  -6.33521  -6.33440
 Alpha  occ. eigenvalues --   -1.19147  -1.17942  -1.12954  -1.10361  -1.09858
 Alpha  occ. eigenvalues --   -1.09188  -1.06211  -0.97571  -0.95245  -0.94840
 Alpha  occ. eigenvalues --   -0.92198  -0.89863  -0.88608  -0.87974  -0.85022
 Alpha  occ. eigenvalues --   -0.84969  -0.83652  -0.83510  -0.83304  -0.80231
 Alpha  occ. eigenvalues --   -0.79074  -0.76375  -0.75675  -0.74664  -0.70954
 Alpha  occ. eigenvalues --   -0.70201  -0.69032  -0.68752  -0.68372  -0.67980
 Alpha  occ. eigenvalues --   -0.65717  -0.64727  -0.63966  -0.63441  -0.61669
 Alpha  occ. eigenvalues --   -0.60287  -0.59414  -0.58938  -0.58378  -0.56178
 Alpha  occ. eigenvalues --   -0.55489  -0.55159  -0.55069  -0.53999  -0.53659
 Alpha  occ. eigenvalues --   -0.53434  -0.53087  -0.52318  -0.51987  -0.51734
 Alpha  occ. eigenvalues --   -0.51181  -0.51020  -0.50614  -0.50279  -0.49834
 Alpha  occ. eigenvalues --   -0.49635  -0.49414  -0.48859  -0.48378  -0.48021
 Alpha  occ. eigenvalues --   -0.47761  -0.47172  -0.46963  -0.46858  -0.45959
 Alpha  occ. eigenvalues --   -0.45890  -0.45259  -0.43975  -0.43652  -0.43425
 Alpha  occ. eigenvalues --   -0.42758  -0.42429  -0.42289  -0.41925  -0.41851
 Alpha  occ. eigenvalues --   -0.41165  -0.40813  -0.40611  -0.39931  -0.39517
 Alpha  occ. eigenvalues --   -0.39380  -0.39169  -0.38689  -0.38376  -0.37773
 Alpha  occ. eigenvalues --   -0.37397  -0.36298  -0.35948  -0.35394  -0.35106
 Alpha  occ. eigenvalues --   -0.34430  -0.33171  -0.32138  -0.31674  -0.31517
 Alpha  occ. eigenvalues --   -0.29825  -0.28877  -0.28329  -0.27581  -0.25467
 Alpha virt. eigenvalues --   -0.01023   0.00643   0.03350   0.03832   0.09088
 Alpha virt. eigenvalues --    0.10104   0.10968   0.11711   0.13008   0.13380
 Alpha virt. eigenvalues --    0.13776   0.14172   0.15260   0.15566   0.15730

 Mulliken charges:
               1
     1  C   -0.304024
     2  C   -0.304219
     3  C   -0.309850
     4  C   -0.073606
     5  C    0.061785
     6  C   -0.305499
     7  H    0.165758
     8  H    0.160892
     9  H    0.159239
    10  H    0.146886
    11  H    0.156628
    12  H    0.213293
    13  H    0.141320
    14  H    0.180232
    15  H    0.148252
    16  H    0.151638
    17  N   -0.424741
    18  C    0.100716
    19  C    0.084713
    20  C   -0.228193
    21  H    0.206009
    22  C   -0.227287
    23  H    0.263924
    24  C    0.428836
    25  H    0.188322
    26  H    0.206640
    27  N   -0.529900
    28  C   -0.156262
    29  H    0.178441
    30  H    0.198757
    31  C   -0.147488
    32  H    0.169459
    33  H    0.196781
    34  N   -0.754745
    35  S    1.248793
    36  O   -0.646971
    37  O   -0.671254
    38  C    0.048711
    39  C   -0.176931
    40  C   -0.187029
    41  C   -0.170277
    42  C   -0.162747
    43  C   -0.196919
    44  H    0.200058
    45  H    0.140043
    46  H    0.156508
    47  H    0.161726
    48  H    0.155925
    49  O   -0.708644
    50  H    0.479305
    51  C    0.640900
    52  O   -0.524116
    53  O   -0.642705
    54  H    0.485517
    55  C   -0.366341
    56  H    0.199210
    57  H    0.163882
    58  C   -0.070268
    59  H    0.129263
    60  H    0.162994
    61  C   -0.654928
    62  H    0.217667
    63  H    0.188285
    64  H    0.208379
    65  C   -0.286791
    66  H    0.142698
    67  H    0.169905
    68  C   -0.480596
    69  H    0.158168
    70  H    0.158888
    71  H    0.149196
    72  C   -0.337541
    73  H    0.183755
    74  H    0.170119
    75  C   -0.335559
    76  H    0.183564
    77  H    0.173446
 Sum of Mulliken charges =  -0.00000

 Dipole moment (field-independent basis, Debye):
    X=              1.5949    Y=             -0.4225    Z=             -6.4704  Tot=              6.6775
 Quadrupole moment (field-independent basis, Debye-Ang):
   XX=           -197.4660   YY=           -224.1106   ZZ=           -221.3465
   XY=            -12.2917   XZ=             -1.7132   YZ=             12.1547

 Normal termination of Gaussian 16 at Fri Feb  8 01:49:11 2019.
