 Gaussian 16, Revision A.03,
 Gaussian 16:  ES64L-G16RevA.03 25-Dec-2016

 ------------------------------------------
 #p M062X/6-31G* em=gd3 force int=ultrafine
 ------------------------------------------

 -----
 Title
 -----
 Symbolic Z-matrix:
 Charge =  0 Multiplicity = 1

                         Standard orientation:
 ---------------------------------------------------------------------
 Center     Atomic      Atomic             Coordinates (Angstroms)
 Number     Number       Type             X           Y           Z
 ---------------------------------------------------------------------
      1          6           0       -4.863279    0.029008   -0.412484
      2          6           0       -4.882585   -1.243796   -1.264459
      3          6           0       -3.497232   -1.522959   -1.859558
      4          6           0       -2.492158   -1.652358   -0.719843
      5          6           0       -2.414026   -0.340251    0.110159
      6          6           0       -3.805378   -0.048239    0.692364
      7          1           0       -3.503499   -2.432806   -2.470645
      8          1           0       -5.186762   -2.097427   -0.644534
      9          1           0       -5.617898   -1.155958   -2.070977
     10          1           0       -4.636534    0.887536   -1.060203
     11          1           0       -5.854049    0.205686    0.019718
     12          1           0       -2.795496   -2.468248   -0.058652
     13          1           0       -2.209112    0.452305   -0.624480
     14          1           0       -4.064414   -0.830682    1.416968
     15          1           0       -3.748426    0.904643    1.232839
     16          1           0       -3.229531   -0.679841   -2.511486
     17          7           0       -1.121321   -1.991844   -1.166500
     18          6           0       -0.517676   -1.280916   -2.146213
     19          6           0       -0.358813   -2.755006   -0.348486
     20          6           0        0.835462   -1.295252   -2.327569
     21          1           0       -1.166969   -0.675463   -2.765469
     22          6           0        1.000335   -2.817241   -0.465617
     23          1           0       -0.888410   -3.272538    0.444150
     24          6           0        1.664265   -2.007404   -1.417548
     25          1           0        1.260646   -0.710402   -3.132542
     26          1           0        1.544116   -3.405035    0.260587
     27          7           0        2.999953   -1.905622   -1.442958
     28          6           0        3.811275   -2.433404   -0.339641
     29          1           0        3.757068   -3.525666   -0.306656
     30          1           0        3.432665   -2.027146    0.608833
     31          6           0        3.684673   -0.807432   -2.141355
     32          1           0        3.934744   -1.108503   -3.166197
     33          1           0        3.039406    0.074632   -2.163017
     34          7           0       -1.292707   -0.297604    1.027308
     35         16           0       -1.252709   -1.261692    2.277163
     36          8           0       -2.232341   -2.369638    2.221360
     37          8           0        0.149042   -1.701725    2.517729
     38          6           0       -1.223365    2.835614   -0.176084
     39          6           0       -0.440210    2.207393   -1.149133
     40          6           0       -0.913909    2.091233   -2.454690
     41          6           0       -2.179543    2.565806   -2.797591
     42          6           0       -2.969335    3.175691   -1.824348
     43          6           0       -2.488124    3.311337   -0.524578
     44          1           0        0.514833    1.770061   -0.863900
     45          1           0       -0.291015    1.619256   -3.211280
     46          1           0       -2.548427    2.464864   -3.814076
     47          1           0       -3.960488    3.542481   -2.075157
     48          1           0       -3.108006    3.780317    0.236854
     49          8           0        0.175984    1.961348    1.607655
     50          1           0       -0.270249    1.099578    1.363080
     51          6           0        2.431106    0.668146    1.273285
     52          8           0        2.155321    0.220334    0.172803
     53          8           0        2.153036    0.052997    2.409299
     54          1           0        1.483880   -0.674424    2.272735
     55          6           0        3.183636    1.960978    1.484121
     56          1           0        2.725114    2.466098    2.338722
     57          1           0        4.213272    1.708611    1.776917
     58          6           0       -0.717984    2.974021    1.246377
     59          1           0       -1.585540    3.017475    1.926671
     60          1           0       -0.183354    3.927376    1.353420
     61          6           0       -1.653386   -0.270154    3.713253
     62          1           0       -0.964451    0.578067    3.720467
     63          1           0       -2.685374    0.072126    3.613849
     64          1           0       -1.531994   -0.880007    4.609545
     65          6           0        3.171413    2.850178    0.247917
     66          1           0        3.586795    2.298841   -0.604457
     67          1           0        2.128151    3.067965   -0.006027
     68          6           0        3.941648    4.149284    0.463110
     69          1           0        3.923415    4.776191   -0.432991
     70          1           0        3.508012    4.727667    1.285600
     71          1           0        4.989603    3.951812    0.714039
     72          6           0        5.213448   -1.916870   -0.650130
     73          1           0        5.830998   -1.849360    0.247691
     74          1           0        5.711610   -2.583272   -1.361985
     75          6           0        4.933850   -0.556042   -1.292652
     76          1           0        4.685387    0.174694   -0.517155
     77          1           0        5.769173   -0.173652   -1.882798
 ---------------------------------------------------------------------

 SCF Done:  E(RM062X) =  -1991.39054460     A.U. after   15 cycles

 The electronic state is 1-A.
 Alpha  occ. eigenvalues --  -90.10405 -19.63401 -19.60117 -19.59343 -19.58637
 Alpha  occ. eigenvalues --  -19.58384 -14.84820 -14.80539 -14.69447 -10.65448
 Alpha  occ. eigenvalues --  -10.63247 -10.62381 -10.61535 -10.59166 -10.59142
 Alpha  occ. eigenvalues --  -10.59020 -10.57813 -10.57417 -10.56860 -10.56652
 Alpha  occ. eigenvalues --  -10.56093 -10.55783 -10.55484 -10.54964 -10.54917
 Alpha  occ. eigenvalues --  -10.54855 -10.54568 -10.54534 -10.54483 -10.53805
 Alpha  occ. eigenvalues --  -10.53731 -10.53559 -10.53115 -10.52913 -10.52650
 Alpha  occ. eigenvalues --  -10.52488  -8.41371  -6.33609  -6.33516  -6.33436
 Alpha  occ. eigenvalues --   -1.19143  -1.17940  -1.12953  -1.10358  -1.09857
 Alpha  occ. eigenvalues --   -1.09184  -1.06208  -0.97568  -0.95245  -0.94837
 Alpha  occ. eigenvalues --   -0.92197  -0.89862  -0.88606  -0.87980  -0.85021
 Alpha  occ. eigenvalues --   -0.84968  -0.83651  -0.83508  -0.83303  -0.80227
 Alpha  occ. eigenvalues --   -0.79078  -0.76373  -0.75674  -0.74667  -0.70953
 Alpha  occ. eigenvalues --   -0.70199  -0.69035  -0.68749  -0.68372  -0.67982
 Alpha  occ. eigenvalues --   -0.65723  -0.64726  -0.63964  -0.63439  -0.61665
 Alpha  occ. eigenvalues --   -0.60286  -0.59413  -0.58941  -0.58376  -0.56178
 Alpha  occ. eigenvalues --   -0.55485  -0.55159  -0.55068  -0.54006  -0.53660
 Alpha  occ. eigenvalues --   -0.53434  -0.53086  -0.52324  -0.51985  -0.51733
 Alpha  occ. eigenvalues --   -0.51178  -0.51018  -0.50613  -0.50269  -0.49833
 Alpha  occ. eigenvalues --   -0.49632  -0.49420  -0.48857  -0.48375  -0.48019
 Alpha  occ. eigenvalues --   -0.47762  -0.47172  -0.46965  -0.46865  -0.45956
 Alpha  occ. eigenvalues --   -0.45885  -0.45257  -0.43973  -0.43652  -0.43424
 Alpha  occ. eigenvalues --   -0.42757  -0.42429  -0.42286  -0.41923  -0.41857
 Alpha  occ. eigenvalues --   -0.41163  -0.40816  -0.40608  -0.39930  -0.39517
 Alpha  occ. eigenvalues --   -0.39379  -0.39172  -0.38695  -0.38376  -0.37778
 Alpha  occ. eigenvalues --   -0.37390  -0.36292  -0.35942  -0.35391  -0.35107
 Alpha  occ. eigenvalues --   -0.34427  -0.33167  -0.32134  -0.31681  -0.31515
 Alpha  occ. eigenvalues --   -0.29826  -0.28879  -0.28327  -0.27570  -0.25462
 Alpha virt. eigenvalues --   -0.01023   0.00642   0.03348   0.03829   0.09089
 Alpha virt. eigenvalues --    0.10108   0.10963   0.11720   0.13009   0.13388
 Alpha virt. eigenvalues --    0.13785   0.14179   0.15249   0.15558   0.15730

 Mulliken charges:
               1
     1  C   -0.304013
     2  C   -0.304219
     3  C   -0.309843
     4  C   -0.073575
     5  C    0.061827
     6  C   -0.305433
     7  H    0.165760
     8  H    0.160895
     9  H    0.159224
    10  H    0.146849
    11  H    0.156627
    12  H    0.213265
    13  H    0.141346
    14  H    0.180167
    15  H    0.148314
    16  H    0.151570
    17  N   -0.424728
    18  C    0.100685
    19  C    0.084660
    20  C   -0.228163
    21  H    0.205921
    22  C   -0.227313
    23  H    0.263978
    24  C    0.428805
    25  H    0.188316
    26  H    0.206660
    27  N   -0.529822
    28  C   -0.156371
    29  H    0.178443
    30  H    0.198793
    31  C   -0.147473
    32  H    0.169476
    33  H    0.196724
    34  N   -0.754777
    35  S    1.248857
    36  O   -0.646986
    37  O   -0.671146
    38  C    0.048714
    39  C   -0.177002
    40  C   -0.187015
    41  C   -0.170246
    42  C   -0.162688
    43  C   -0.197005
    44  H    0.200327
    45  H    0.139963
    46  H    0.156494
    47  H    0.161734
    48  H    0.155985
    49  O   -0.708910
    50  H    0.479479
    51  C    0.641398
    52  O   -0.524034
    53  O   -0.642936
    54  H    0.485531
    55  C   -0.366412
    56  H    0.199309
    57  H    0.163870
    58  C   -0.070111
    59  H    0.129263
    60  H    0.162655
    61  C   -0.655033
    62  H    0.217713
    63  H    0.188277
    64  H    0.208344
    65  C   -0.286817
    66  H    0.142754
    67  H    0.169654
    68  C   -0.480565
    69  H    0.158178
    70  H    0.158853
    71  H    0.149268
    72  C   -0.337531
    73  H    0.183789
    74  H    0.170115
    75  C   -0.335551
    76  H    0.183457
    77  H    0.173438
 Sum of Mulliken charges =  -0.00000

 Dipole moment (field-independent basis, Debye):
    X=              1.5920    Y=             -0.4222    Z=             -6.4734  Tot=              6.6796
 Quadrupole moment (field-independent basis, Debye-Ang):
   XX=           -197.5130   YY=           -224.0263   ZZ=           -221.3905
   XY=            -12.2721   XZ=             -1.6770   YZ=             12.1774

 Normal termination of Gaussian 16 at Fri Feb  8 01:42:35 2019.
