 Gaussian 16, Revision A.03,
 Gaussian 16:  ES64L-G16RevA.03 25-Dec-2016

 ------------------------------------------
 #p M062X/6-31G* em=gd3 force int=ultrafine
 ------------------------------------------

 -----
 Title
 -----
 Symbolic Z-matrix:
 Charge =  0 Multiplicity = 1

                         Standard orientation:
 ---------------------------------------------------------------------
 Center     Atomic      Atomic             Coordinates (Angstroms)
 Number     Number       Type             X           Y           Z
 ---------------------------------------------------------------------
      1          6           0       -4.781629    0.387731   -0.577802
      2          6           0       -4.950676   -0.899869   -1.389885
      3          6           0       -3.613532   -1.341945   -1.997255
      4          6           0       -2.610020   -1.547557   -0.868606
      5          6           0       -2.394055   -0.232958   -0.074244
      6          6           0       -3.727414    0.231301    0.522727
      7          1           0       -3.724169   -2.263065   -2.579442
      8          1           0       -5.333284   -1.698448   -0.740810
      9          1           0       -5.686691   -0.755362   -2.186978
     10          1           0       -4.476606    1.198353   -1.252325
     11          1           0       -5.739276    0.680644   -0.135221
     12          1           0       -2.989868   -2.310351   -0.181954
     13          1           0       -2.076390    0.527819   -0.798821
     14          1           0       -4.069523   -0.494933    1.267651
     15          1           0       -3.559582    1.187757    1.029131
     16          1           0       -3.266568   -0.552659   -2.677851
     17          7           0       -1.280020   -2.021954   -1.304132
     18          6           0       -0.594982   -1.345231   -2.263635
     19          6           0       -0.581885   -2.799495   -0.433378
     20          6           0        0.762156   -1.386790   -2.352960
     21          1           0       -1.189731   -0.739723   -2.936405
     22          6           0        0.776320   -2.870710   -0.443260
     23          1           0       -1.172735   -3.305425    0.322519
     24          6           0        1.515682   -2.058951   -1.344416
     25          1           0        1.251276   -0.824702   -3.136797
     26          1           0        1.262729   -3.448287    0.329932
     27          7           0        2.835375   -1.936953   -1.252676
     28          6           0        3.559296   -2.350228   -0.040100
     29          1           0        3.455133   -3.426257    0.123990
     30          1           0        3.145581   -1.790255    0.811800
     31          6           0        3.559066   -0.881251   -1.972697
     32          1           0        3.811898   -1.222671   -2.983986
     33          1           0        2.923462    0.006720   -2.028920
     34          7           0       -1.283849   -0.321206    0.860895
     35         16           0       -1.347103   -1.170592    2.249708
     36          8           0       -2.538458   -2.025317    2.218981
     37          8           0       -0.050891   -1.821142    2.461410
     38          6           0       -0.627655    2.698646    0.057099
     39          6           0       -0.153442    2.232699   -1.179132
     40          6           0       -0.942845    2.324201   -2.323690
     41          6           0       -2.223672    2.874511   -2.266830
     42          6           0       -2.708745    3.334110   -1.045813
     43          6           0       -1.912625    3.246979    0.096699
     44          1           0        0.813600    1.745513   -1.214228
     45          1           0       -0.548272    1.968688   -3.273040
     46          1           0       -2.833188    2.949514   -3.163206
     47          1           0       -3.703969    3.765945   -0.980199
     48          1           0       -2.299224    3.620550    1.043153
     49          8           0        0.684266    1.559927    1.908612
     50          1           0       -0.296014   -0.070264    0.555134
     51          6           0        1.817135    0.831357    1.263826
     52          8           0        1.407791    0.224752    0.167514
     53          8           0        2.207712   -0.052996    2.298703
     54          1           0        1.510146   -0.733008    2.329727
     55          6           0        3.024291    1.798760    1.133825
     56          1           0        2.989167    2.516882    1.962928
     57          1           0        3.914425    1.183369    1.317046
     58          6           0        0.219694    2.749009    1.331770
     59          1           0       -0.404149    3.219076    2.103085
     60          1           0        1.056007    3.441824    1.156666
     61          6           0       -1.531046    0.039648    3.538737
     62          1           0       -0.670392    0.708477    3.450061
     63          1           0       -2.470060    0.571144    3.374660
     64          1           0       -1.543701   -0.489485    4.493021
     65          6           0        3.201009    2.524978   -0.196622
     66          1           0        3.149420    1.793128   -1.010276
     67          1           0        2.380641    3.227193   -0.382443
     68          6           0        4.527379    3.280104   -0.257127
     69          1           0        4.655705    3.798703   -1.212540
     70          1           0        4.586801    4.026475    0.541749
     71          1           0        5.374084    2.596310   -0.127118
     72          6           0        4.994733   -1.935482   -0.343865
     73          1           0        5.582717   -1.809814    0.567128
     74          1           0        5.481701   -2.688719   -0.972848
     75          6           0        4.802153   -0.626916   -1.114567
     76          1           0        4.581710    0.177623   -0.408678
     77          1           0        5.668787   -0.339738   -1.713790
 ---------------------------------------------------------------------

 SCF Done:  E(RM062X) =  -1991.35882225     A.U. after   14 cycles

 The electronic state is 1-A.
 Alpha  occ. eigenvalues --  -90.14102 -19.61718 -19.61698 -19.58749 -19.56727
 Alpha  occ. eigenvalues --  -19.51358 -14.85144 -14.80453 -14.75582 -10.63403
 Alpha  occ. eigenvalues --  -10.62776 -10.62307 -10.62126 -10.60685 -10.59269
 Alpha  occ. eigenvalues --  -10.58591 -10.57966 -10.57905 -10.57110 -10.56882
 Alpha  occ. eigenvalues --  -10.56668 -10.55629 -10.55582 -10.55145 -10.54934
 Alpha  occ. eigenvalues --  -10.54809 -10.54745 -10.54693 -10.54539 -10.54368
 Alpha  occ. eigenvalues --  -10.54292 -10.54258 -10.53093 -10.51601 -10.51520
 Alpha  occ. eigenvalues --  -10.49763  -8.45080  -6.37296  -6.37274  -6.37118
 Alpha  occ. eigenvalues --   -1.21930  -1.13629  -1.13496  -1.10184  -1.09350
 Alpha  occ. eigenvalues --   -1.05906  -1.01648  -0.99382  -0.95707  -0.94970
 Alpha  occ. eigenvalues --   -0.93470  -0.90269  -0.88750  -0.85891  -0.85824
 Alpha  occ. eigenvalues --   -0.84810  -0.84675  -0.84281  -0.83040  -0.82644
 Alpha  occ. eigenvalues --   -0.76651  -0.76339  -0.75832  -0.74397  -0.72740
 Alpha  occ. eigenvalues --   -0.71600  -0.68328  -0.68264  -0.67931  -0.67171
 Alpha  occ. eigenvalues --   -0.66760  -0.65211  -0.64869  -0.63520  -0.60576
 Alpha  occ. eigenvalues --   -0.60403  -0.59794  -0.58912  -0.57816  -0.57570
 Alpha  occ. eigenvalues --   -0.57149  -0.56428  -0.55741  -0.55164  -0.54178
 Alpha  occ. eigenvalues --   -0.53496  -0.52641  -0.52415  -0.52382  -0.51897
 Alpha  occ. eigenvalues --   -0.51537  -0.51060  -0.50890  -0.49854  -0.49590
 Alpha  occ. eigenvalues --   -0.49157  -0.48814  -0.48204  -0.48116  -0.48066
 Alpha  occ. eigenvalues --   -0.47641  -0.47442  -0.46899  -0.46464  -0.46096
 Alpha  occ. eigenvalues --   -0.44905  -0.44701  -0.44114  -0.43887  -0.43252
 Alpha  occ. eigenvalues --   -0.42471  -0.42100  -0.41480  -0.41397  -0.41160
 Alpha  occ. eigenvalues --   -0.40885  -0.40459  -0.40008  -0.39839  -0.39413
 Alpha  occ. eigenvalues --   -0.39256  -0.39052  -0.38455  -0.37907  -0.37582
 Alpha  occ. eigenvalues --   -0.37374  -0.36727  -0.36572  -0.35699  -0.34885
 Alpha  occ. eigenvalues --   -0.34366  -0.33914  -0.31708  -0.31024  -0.29747
 Alpha  occ. eigenvalues --   -0.28888  -0.28586  -0.27608  -0.24956  -0.24495
 Alpha virt. eigenvalues --   -0.01474   0.00445   0.03583   0.03792   0.10164
 Alpha virt. eigenvalues --    0.11039   0.11633   0.12135   0.13204   0.13546
 Alpha virt. eigenvalues --    0.14200   0.14661   0.14780   0.15282   0.15599

 Mulliken charges:
               1
     1  C   -0.306152
     2  C   -0.306973
     3  C   -0.309798
     4  C   -0.059586
     5  C    0.057201
     6  C   -0.311868
     7  H    0.173787
     8  H    0.162775
     9  H    0.165268
    10  H    0.150916
    11  H    0.163054
    12  H    0.208604
    13  H    0.172695
    14  H    0.193185
    15  H    0.163491
    16  H    0.153937
    17  N   -0.431280
    18  C    0.068621
    19  C    0.063797
    20  C   -0.203589
    21  H    0.206805
    22  C   -0.208903
    23  H    0.245736
    24  C    0.447986
    25  H    0.191352
    26  H    0.211698
    27  N   -0.527482
    28  C   -0.173373
    29  H    0.169830
    30  H    0.233311
    31  C   -0.154283
    32  H    0.167294
    33  H    0.202457
    34  N   -0.816904
    35  S    1.253925
    36  O   -0.612206
    37  O   -0.608392
    38  C    0.088139
    39  C   -0.180551
    40  C   -0.189201
    41  C   -0.170734
    42  C   -0.163679
    43  C   -0.212178
    44  H    0.206459
    45  H    0.140915
    46  H    0.154757
    47  H    0.158460
    48  H    0.152405
    49  O   -0.548671
    50  H    0.449449
    51  C    0.726867
    52  O   -0.723840
    53  O   -0.718146
    54  H    0.445590
    55  C   -0.338199
    56  H    0.149768
    57  H    0.149920
    58  C   -0.093345
    59  H    0.140959
    60  H    0.147097
    61  C   -0.662932
    62  H    0.271873
    63  H    0.196279
    64  H    0.217400
    65  C   -0.295046
    66  H    0.139965
    67  H    0.146692
    68  C   -0.474674
    69  H    0.149195
    70  H    0.155800
    71  H    0.143972
    72  C   -0.331777
    73  H    0.187519
    74  H    0.163336
    75  C   -0.343719
    76  H    0.195466
    77  H    0.171477
 Sum of Mulliken charges =  -0.00000

 Dipole moment (field-independent basis, Debye):
    X=             -2.3130    Y=             -1.8437    Z=             -6.4406  Tot=              7.0874
 Quadrupole moment (field-independent basis, Debye-Ang):
   XX=           -205.2110   YY=           -223.2397   ZZ=           -219.7409
   XY=            -12.1497   XZ=             -5.3758   YZ=             10.0357

 Normal termination of Gaussian 16 at Thu Feb  7 16:09:58 2019.
