 Gaussian 16, Revision A.03,
 Gaussian 16:  ES64L-G16RevA.03 25-Dec-2016

 ------------------------------------------
 #p M062X/6-31G* em=gd3 force int=ultrafine
 ------------------------------------------

 -----
 Title
 -----
 Symbolic Z-matrix:
 Charge =  0 Multiplicity = 1

                         Standard orientation:
 ---------------------------------------------------------------------
 Center     Atomic      Atomic             Coordinates (Angstroms)
 Number     Number       Type             X           Y           Z
 ---------------------------------------------------------------------
      1          6           0       -4.869957    0.154202   -0.443323
      2          6           0       -4.944480   -1.137997   -1.262260
      3          6           0       -3.572521   -1.493052   -1.848334
      4          6           0       -2.566610   -1.624585   -0.709061
      5          6           0       -2.440531   -0.295616    0.090005
      6          6           0       -3.819644    0.056963    0.667496
      7          1           0       -3.617947   -2.421419   -2.429277
      8          1           0       -5.287477   -1.960758   -0.621353
      9          1           0       -5.674005   -1.038683   -2.072866
     10          1           0       -4.600657    0.984077   -1.111936
     11          1           0       -5.853295    0.388474   -0.021796
     12          1           0       -2.892010   -2.413833   -0.025492
     13          1           0       -2.212183    0.474115   -0.662628
     14          1           0       -4.109353   -0.701862    1.405449
     15          1           0       -3.727562    1.016670    1.189949
     16          1           0       -3.274318   -0.683996   -2.529238
     17          7           0       -1.208148   -2.016846   -1.151986
     18          6           0       -0.586740   -1.348797   -2.151229
     19          6           0       -0.461057   -2.764584   -0.305727
     20          6           0        0.767192   -1.388582   -2.322798
     21          1           0       -1.222840   -0.756232   -2.796048
     22          6           0        0.897925   -2.848935   -0.410274
     23          1           0       -1.002411   -3.249359    0.499640
     24          6           0        1.580503   -2.077966   -1.380952
     25          1           0        1.205245   -0.836223   -3.143667
     26          1           0        1.426902   -3.417121    0.341907
     27          7           0        2.917726   -1.989247   -1.392626
     28          6           0        3.704178   -2.469499   -0.249184
     29          1           0        3.644691   -3.558776   -0.168062
     30          1           0        3.307902   -2.020019    0.672110
     31          6           0        3.620922   -0.922925   -2.122187
     32          1           0        3.883219   -1.264861   -3.130779
     33          1           0        2.982694   -0.037788   -2.187846
     34          7           0       -1.311951   -0.271107    0.995724
     35         16           0       -1.279558   -1.188915    2.281100
     36          8           0       -2.296818   -2.263708    2.281505
     37          8           0        0.113360   -1.660983    2.510802
     38          6           0       -1.011520    2.855445   -0.156614
     39          6           0       -0.339687    2.166738   -1.173493
     40          6           0       -0.915179    2.062209   -2.437819
     41          6           0       -2.176894    2.601426   -2.692793
     42          6           0       -2.861609    3.256266   -1.671932
     43          6           0       -2.275406    3.383462   -0.414596
     44          1           0        0.609963    1.680768   -0.955340
     45          1           0       -0.376441    1.551221   -3.232770
     46          1           0       -2.624525    2.512159   -3.678215
     47          1           0       -3.850747    3.667667   -1.850230
     48          1           0       -2.808769    3.891095    0.385932
     49          8           0        0.257297    1.848669    1.651537
     50          1           0       -0.290461    1.063400    1.345493
     51          6           0        2.440651    0.630507    1.190879
     52          8           0        2.099834    0.200642    0.102653
     53          8           0        2.246815   -0.016961    2.329538
     54          1           0        1.530238   -0.701326    2.225567
     55          6           0        3.190087    1.929096    1.377040
     56          1           0        2.684752    2.469644    2.183347
     57          1           0        4.201081    1.694435    1.738947
     58          6           0       -0.388776    3.008558    1.214784
     59          1           0       -1.166294    3.336532    1.924251
     60          1           0        0.368344    3.806535    1.186486
     61          6           0       -1.613927   -0.124110    3.681396
     62          1           0       -0.884773    0.688798    3.640427
     63          1           0       -2.629469    0.264050    3.581863
     64          1           0       -1.506389   -0.701432    4.600564
     65          6           0        3.243795    2.762988    0.102770
     66          1           0        3.666622    2.162443   -0.711685
     67          1           0        2.219532    3.003869   -0.203731
     68          6           0        4.050932    4.045308    0.281096
     69          1           0        4.094538    4.620222   -0.648487
     70          1           0        3.606699    4.685182    1.050772
     71          1           0        5.079111    3.823955    0.587564
     72          6           0        5.115482   -1.973222   -0.551021
     73          1           0        5.709479   -1.861535    0.358292
     74          1           0        5.629188   -2.675818   -1.214994
     75          6           0        4.860492   -0.644659   -1.266920
     76          1           0        4.612623    0.127234   -0.533085
     77          1           0        5.709015   -0.301566   -1.862389
 ---------------------------------------------------------------------

 SCF Done:  E(RM062X) =  -1991.38738145     A.U. after   15 cycles

 The electronic state is 1-A.
 Alpha  occ. eigenvalues --  -90.10315 -19.63423 -19.60114 -19.59085 -19.58499
 Alpha  occ. eigenvalues --  -19.58325 -14.84787 -14.80471 -14.69340 -10.65551
 Alpha  occ. eigenvalues --  -10.63213 -10.62409 -10.61508 -10.59117 -10.59106
 Alpha  occ. eigenvalues --  -10.59000 -10.57822 -10.57404 -10.56785 -10.56674
 Alpha  occ. eigenvalues --  -10.55997 -10.55727 -10.55559 -10.54999 -10.54936
 Alpha  occ. eigenvalues --  -10.54885 -10.54611 -10.54574 -10.54505 -10.53840
 Alpha  occ. eigenvalues --  -10.53581 -10.53574 -10.53269 -10.53225 -10.52712
 Alpha  occ. eigenvalues --  -10.52622  -8.41276  -6.33514  -6.33422  -6.33342
 Alpha  occ. eigenvalues --   -1.19160  -1.17824  -1.12926  -1.10185  -1.09887
 Alpha  occ. eigenvalues --   -1.09113  -1.06095  -0.97524  -0.95292  -0.94768
 Alpha  occ. eigenvalues --   -0.92184  -0.89836  -0.88566  -0.88176  -0.85040
 Alpha  occ. eigenvalues --   -0.84911  -0.83665  -0.83512  -0.83299  -0.80133
 Alpha  occ. eigenvalues --   -0.79242  -0.76331  -0.75636  -0.74674  -0.70935
 Alpha  occ. eigenvalues --   -0.70212  -0.69178  -0.68692  -0.68345  -0.68043
 Alpha  occ. eigenvalues --   -0.65879  -0.64736  -0.63925  -0.63440  -0.61602
 Alpha  occ. eigenvalues --   -0.60257  -0.59375  -0.59026  -0.58349  -0.56158
 Alpha  occ. eigenvalues --   -0.55480  -0.55199  -0.55096  -0.54185  -0.53748
 Alpha  occ. eigenvalues --   -0.53443  -0.53060  -0.52499  -0.51932  -0.51690
 Alpha  occ. eigenvalues --   -0.51105  -0.50972  -0.50612  -0.50086  -0.49832
 Alpha  occ. eigenvalues --   -0.49590  -0.49535  -0.48802  -0.48330  -0.47990
 Alpha  occ. eigenvalues --   -0.47803  -0.47186  -0.47025  -0.46973  -0.45894
 Alpha  occ. eigenvalues --   -0.45707  -0.45226  -0.43943  -0.43657  -0.43437
 Alpha  occ. eigenvalues --   -0.42800  -0.42626  -0.42199  -0.42004  -0.41875
 Alpha  occ. eigenvalues --   -0.41167  -0.40889  -0.40539  -0.39896  -0.39566
 Alpha  occ. eigenvalues --   -0.39360  -0.39255  -0.38886  -0.38395  -0.37959
 Alpha  occ. eigenvalues --   -0.37316  -0.36217  -0.35822  -0.35342  -0.35139
 Alpha  occ. eigenvalues --   -0.34340  -0.33063  -0.32034  -0.31656  -0.31482
 Alpha  occ. eigenvalues --   -0.29890  -0.28863  -0.28318  -0.27398  -0.25367
 Alpha virt. eigenvalues --   -0.01033   0.00666   0.03215   0.03761   0.08991
 Alpha virt. eigenvalues --    0.10168   0.10910   0.11815   0.12960   0.13546
 Alpha virt. eigenvalues --    0.13864   0.14289   0.15006   0.15480   0.15816

 Mulliken charges:
               1
     1  C   -0.303933
     2  C   -0.304176
     3  C   -0.309626
     4  C   -0.073051
     5  C    0.064251
     6  C   -0.304974
     7  H    0.166421
     8  H    0.161027
     9  H    0.159146
    10  H    0.145752
    11  H    0.156793
    12  H    0.211891
    13  H    0.141196
    14  H    0.179406
    15  H    0.150078
    16  H    0.150106
    17  N   -0.424011
    18  C    0.098953
    19  C    0.084639
    20  C   -0.227254
    21  H    0.204723
    22  C   -0.226456
    23  H    0.263378
    24  C    0.427689
    25  H    0.187905
    26  H    0.207416
    27  N   -0.528054
    28  C   -0.158217
    29  H    0.178321
    30  H    0.198812
    31  C   -0.146500
    32  H    0.169588
    33  H    0.194909
    34  N   -0.758851
    35  S    1.249324
    36  O   -0.644817
    37  O   -0.669920
    38  C    0.049061
    39  C   -0.176446
    40  C   -0.187737
    41  C   -0.169638
    42  C   -0.161508
    43  C   -0.198797
    44  H    0.204689
    45  H    0.139172
    46  H    0.156576
    47  H    0.162012
    48  H    0.157635
    49  O   -0.715129
    50  H    0.483466
    51  C    0.653680
    52  O   -0.521936
    53  O   -0.646542
    54  H    0.485292
    55  C   -0.370247
    56  H    0.202131
    57  H    0.164958
    58  C   -0.064426
    59  H    0.127541
    60  H    0.152003
    61  C   -0.659262
    62  H    0.223169
    63  H    0.187158
    64  H    0.207076
    65  C   -0.288431
    66  H    0.144862
    67  H    0.163319
    68  C   -0.480336
    69  H    0.158969
    70  H    0.158412
    71  H    0.151176
    72  C   -0.337018
    73  H    0.184397
    74  H    0.169924
    75  C   -0.335872
    76  H    0.181704
    77  H    0.173056
 Sum of Mulliken charges =  -0.00000

 Dipole moment (field-independent basis, Debye):
    X=              1.5423    Y=             -0.2760    Z=             -6.6110  Tot=              6.7941
 Quadrupole moment (field-independent basis, Debye-Ang):
   XX=           -198.8749   YY=           -222.6062   ZZ=           -222.3790
   XY=            -11.7359   XZ=             -0.4673   YZ=             12.5824

 Normal termination of Gaussian 16 at Thu Feb  7 23:21:18 2019.
