 Gaussian 16, Revision A.03,
 Gaussian 16:  ES64L-G16RevA.03 25-Dec-2016

 ------------------------------------------
 #p M062X/6-31G* em=gd3 force int=ultrafine
 ------------------------------------------

 -----
 Title
 -----
 Symbolic Z-matrix:
 Charge =  0 Multiplicity = 1

                         Standard orientation:
 ---------------------------------------------------------------------
 Center     Atomic      Atomic             Coordinates (Angstroms)
 Number     Number       Type             X           Y           Z
 ---------------------------------------------------------------------
      1          6           0       -4.847917    0.376595   -0.499903
      2          6           0       -4.979827   -0.893824   -1.345425
      3          6           0       -3.624901   -1.299729   -1.938632
      4          6           0       -2.636483   -1.518008   -0.800787
      5          6           0       -2.461220   -0.234165    0.051078
      6          6           0       -3.818627    0.199268    0.619346
      7          1           0       -3.710740   -2.204350   -2.550485
      8          1           0       -5.359982   -1.712499   -0.720522
      9          1           0       -5.702380   -0.744874   -2.154109
     10          1           0       -4.530368    1.205090   -1.148923
     11          1           0       -5.821311    0.652520   -0.080909
     12          1           0       -2.995493   -2.317240   -0.144867
     13          1           0       -2.155899    0.550695   -0.658837
     14          1           0       -4.162027   -0.545978    1.346257
     15          1           0       -3.668763    1.146020    1.153097
     16          1           0       -3.281442   -0.482964   -2.588483
     17          7           0       -1.285541   -1.940729   -1.245163
     18          6           0       -0.628328   -1.252936   -2.208832
     19          6           0       -0.567860   -2.730397   -0.410448
     20          6           0        0.727215   -1.317678   -2.358186
     21          1           0       -1.236170   -0.619440   -2.841733
     22          6           0        0.791000   -2.843378   -0.494521
     23          1           0       -1.132845   -3.237649    0.364001
     24          6           0        1.509327   -2.056500   -1.426832
     25          1           0        1.192325   -0.742934   -3.148505
     26          1           0        1.292833   -3.449017    0.247058
     27          7           0        2.848295   -1.995236   -1.412557
     28          6           0        3.601698   -2.504276   -0.258072
     29          1           0        3.503479   -3.590057   -0.177207
     30          1           0        3.211251   -2.037893    0.657434
     31          6           0        3.584643   -0.918208   -2.096070
     32          1           0        3.855430   -1.232500   -3.110910
     33          1           0        2.967075   -0.017441   -2.140841
     34          7           0       -1.357187   -0.348165    0.966685
     35         16           0       -1.389273   -1.232746    2.279953
     36          8           0       -2.522693   -2.179399    2.308576
     37          8           0       -0.041548   -1.828067    2.475510
     38          6           0       -0.758715    2.777548   -0.066360
     39          6           0       -0.172650    2.136248   -1.165550
     40          6           0       -0.815536    2.157985   -2.401206
     41          6           0       -2.058110    2.777939   -2.544787
     42          6           0       -2.651185    3.393851   -1.445526
     43          6           0       -1.995982    3.395570   -0.217853
     44          1           0        0.758706    1.587496   -1.033818
     45          1           0       -0.349564    1.679948   -3.260730
     46          1           0       -2.563039    2.780830   -3.505767
     47          1           0       -3.623269    3.868069   -1.535433
     48          1           0       -2.450780    3.864431    0.651266
     49          8           0        0.278943    1.463047    1.662752
     50          1           0       -0.370914    0.765517    1.250517
     51          6           0        2.396266    0.568240    1.171353
     52          8           0        2.090286    0.155615    0.067955
     53          8           0        2.260936   -0.146970    2.286769
     54          1           0        1.530800   -0.807258    2.177266
     55          6           0        3.124768    1.874115    1.395662
     56          1           0        2.614518    2.422233    2.195753
     57          1           0        4.114053    1.608631    1.790759
     58          6           0       -0.111375    2.741813    1.298249
     59          1           0       -0.805588    3.172194    2.037440
     60          1           0        0.787547    3.376013    1.305319
     61          6           0       -1.547088   -0.087421    3.651282
     62          1           0       -0.731177    0.629858    3.532025
     63          1           0       -2.513451    0.415356    3.581920
     64          1           0       -1.454564   -0.633129    4.591156
     65          6           0        3.277514    2.726412    0.137005
     66          1           0        3.663312    2.101239   -0.676434
     67          1           0        2.298556    3.082889   -0.204829
     68          6           0        4.207690    3.915602    0.368853
     69          1           0        4.358721    4.492437   -0.548218
     70          1           0        3.803187    4.594073    1.127593
     71          1           0        5.189308    3.577618    0.718315
     72          6           0        5.030319   -2.052039   -0.542389
     73          1           0        5.629226   -1.992421    0.368541
     74          1           0        5.515566   -2.749528   -1.232801
     75          6           0        4.816305   -0.693846   -1.213316
     76          1           0        4.570128    0.053052   -0.453399
     77          1           0        5.680122   -0.342689   -1.781244
 ---------------------------------------------------------------------

 SCF Done:  E(RM062X) =  -1991.37536351     A.U. after   15 cycles

 The electronic state is 1-A.
 Alpha  occ. eigenvalues --  -90.10357 -19.63593 -19.60043 -19.58399 -19.58325
 Alpha  occ. eigenvalues --  -19.57743 -14.84809 -14.80399 -14.69334 -10.65972
 Alpha  occ. eigenvalues --  -10.63223 -10.62458 -10.61721 -10.59290 -10.59020
 Alpha  occ. eigenvalues --  -10.58832 -10.57830 -10.56973 -10.56786 -10.56781
 Alpha  occ. eigenvalues --  -10.55896 -10.55660 -10.55642 -10.55087 -10.55014
 Alpha  occ. eigenvalues --  -10.54917 -10.54638 -10.54502 -10.54423 -10.53926
 Alpha  occ. eigenvalues --  -10.53710 -10.53640 -10.53636 -10.53256 -10.53007
 Alpha  occ. eigenvalues --  -10.52653  -8.41302  -6.33538  -6.33450  -6.33373
 Alpha  occ. eigenvalues --   -1.19215  -1.17802  -1.12948  -1.10049  -1.09463
 Alpha  occ. eigenvalues --   -1.09030  -1.06121  -0.97791  -0.95360  -0.94798
 Alpha  occ. eigenvalues --   -0.92285  -0.89835  -0.88588  -0.88473  -0.85012
 Alpha  occ. eigenvalues --   -0.84778  -0.83790  -0.83581  -0.83329  -0.80025
 Alpha  occ. eigenvalues --   -0.79509  -0.76317  -0.75613  -0.74404  -0.71021
 Alpha  occ. eigenvalues --   -0.70425  -0.69444  -0.68645  -0.68348  -0.68107
 Alpha  occ. eigenvalues --   -0.65976  -0.64818  -0.63923  -0.63523  -0.61699
 Alpha  occ. eigenvalues --   -0.60325  -0.59440  -0.59086  -0.58352  -0.56237
 Alpha  occ. eigenvalues --   -0.55892  -0.55311  -0.55237  -0.54717  -0.53916
 Alpha  occ. eigenvalues --   -0.53517  -0.53064  -0.52624  -0.51844  -0.51587
 Alpha  occ. eigenvalues --   -0.51113  -0.50945  -0.50663  -0.49959  -0.49862
 Alpha  occ. eigenvalues --   -0.49804  -0.49521  -0.48760  -0.48318  -0.48046
 Alpha  occ. eigenvalues --   -0.47469  -0.47265  -0.47098  -0.46957  -0.45821
 Alpha  occ. eigenvalues --   -0.45493  -0.45179  -0.44060  -0.43826  -0.43513
 Alpha  occ. eigenvalues --   -0.43238  -0.42832  -0.42118  -0.41786  -0.41712
 Alpha  occ. eigenvalues --   -0.41278  -0.40905  -0.40499  -0.39890  -0.39737
 Alpha  occ. eigenvalues --   -0.39461  -0.39401  -0.39213  -0.38444  -0.38105
 Alpha  occ. eigenvalues --   -0.37495  -0.36330  -0.35802  -0.35416  -0.35021
 Alpha  occ. eigenvalues --   -0.34151  -0.32937  -0.31938  -0.31718  -0.30690
 Alpha  occ. eigenvalues --   -0.29992  -0.28470  -0.28313  -0.27203  -0.25486
 Alpha virt. eigenvalues --   -0.01103   0.00692   0.03125   0.03720   0.09009
 Alpha virt. eigenvalues --    0.10132   0.10950   0.11745   0.12971   0.13446
 Alpha virt. eigenvalues --    0.13749   0.14349   0.15070   0.15392   0.15858

 Mulliken charges:
               1
     1  C   -0.303759
     2  C   -0.304981
     3  C   -0.309335
     4  C   -0.068312
     5  C    0.073006
     6  C   -0.305134
     7  H    0.167354
     8  H    0.162033
     9  H    0.159596
    10  H    0.144429
    11  H    0.157706
    12  H    0.207569
    13  H    0.141490
    14  H    0.185145
    15  H    0.149922
    16  H    0.149890
    17  N   -0.425155
    18  C    0.096326
    19  C    0.098785
    20  C   -0.226439
    21  H    0.204429
    22  C   -0.228656
    23  H    0.255513
    24  C    0.425953
    25  H    0.187584
    26  H    0.207958
    27  N   -0.524725
    28  C   -0.159298
    29  H    0.177733
    30  H    0.197990
    31  C   -0.145058
    32  H    0.169313
    33  H    0.193830
    34  N   -0.788595
    35  S    1.244104
    36  O   -0.631503
    37  O   -0.663233
    38  C    0.052591
    39  C   -0.179034
    40  C   -0.188822
    41  C   -0.170235
    42  C   -0.160557
    43  C   -0.199265
    44  H    0.204548
    45  H    0.139864
    46  H    0.157112
    47  H    0.162332
    48  H    0.159166
    49  O   -0.718999
    50  H    0.489425
    51  C    0.677962
    52  O   -0.523281
    53  O   -0.646743
    54  H    0.478510
    55  C   -0.376550
    56  H    0.197919
    57  H    0.169399
    58  C   -0.060329
    59  H    0.122142
    60  H    0.135553
    61  C   -0.668859
    62  H    0.238552
    63  H    0.184017
    64  H    0.205189
    65  C   -0.293023
    66  H    0.148357
    67  H    0.163716
    68  C   -0.480571
    69  H    0.160464
    70  H    0.159221
    71  H    0.152478
    72  C   -0.334848
    73  H    0.183828
    74  H    0.169123
    75  C   -0.335123
    76  H    0.178858
    77  H    0.172435
 Sum of Mulliken charges =  -0.00000

 Dipole moment (field-independent basis, Debye):
    X=              1.7940    Y=              0.3052    Z=             -6.7457  Tot=              6.9869
 Quadrupole moment (field-independent basis, Debye-Ang):
   XX=           -201.1730   YY=           -222.9048   ZZ=           -222.7540
   XY=            -11.6105   XZ=              1.7205   YZ=             13.4733

 Normal termination of Gaussian 16 at Thu Feb  7 20:36:59 2019.
