 Gaussian 16, Revision A.03,
 Gaussian 16:  ES64L-G16RevA.03 25-Dec-2016

 ------------------------------------------
 #p M062X/6-31G* em=gd3 force int=ultrafine
 ------------------------------------------

 -----
 Title
 -----
 Symbolic Z-matrix:
 Charge =  0 Multiplicity = 1

                         Standard orientation:
 ---------------------------------------------------------------------
 Center     Atomic      Atomic             Coordinates (Angstroms)
 Number     Number       Type             X           Y           Z
 ---------------------------------------------------------------------
      1          6           0       -4.796246    0.458390   -0.516529
      2          6           0       -5.003162   -0.845079   -1.293816
      3          6           0       -3.686192   -1.324444   -1.916587
      4          6           0       -2.662301   -1.520093   -0.804451
      5          6           0       -2.413142   -0.194573   -0.040413
      6          6           0       -3.726323    0.307376    0.569726
      7          1           0       -3.823513   -2.257760   -2.472948
      8          1           0       -5.386084   -1.621024   -0.617968
      9          1           0       -5.752558   -0.707401   -2.079553
     10          1           0       -4.487566    1.246705   -1.215720
     11          1           0       -5.740471    0.780180   -0.065323
     12          1           0       -3.036535   -2.265253   -0.095742
     13          1           0       -2.094589    0.546869   -0.784267
     14          1           0       -4.068416   -0.394884    1.337143
     15          1           0       -3.531327    1.271734    1.051076
     16          1           0       -3.340252   -0.558724   -2.624009
     17          7           0       -1.347027   -2.017724   -1.259048
     18          6           0       -0.665679   -1.346719   -2.226201
     19          6           0       -0.647812   -2.808082   -0.401551
     20          6           0        0.688898   -1.406953   -2.335177
     21          1           0       -1.261148   -0.727147   -2.885385
     22          6           0        0.708507   -2.906354   -0.437304
     23          1           0       -1.233461   -3.301607    0.366539
     24          6           0        1.447682   -2.103747   -1.347273
     25          1           0        1.176074   -0.844442   -3.120179
     26          1           0        1.197358   -3.495483    0.325496
     27          7           0        2.770530   -2.009400   -1.280953
     28          6           0        3.509786   -2.473787   -0.097374
     29          1           0        3.386273   -3.551929    0.036813
     30          1           0        3.126295   -1.930110    0.778536
     31          6           0        3.499573   -0.939526   -1.977776
     32          1           0        3.738971   -1.253805   -3.001120
     33          1           0        2.874691   -0.042485   -1.992535
     34          7           0       -1.288824   -0.283392    0.878744
     35         16           0       -1.328894   -1.116004    2.282150
     36          8           0       -2.546500   -1.932424    2.292282
     37          8           0       -0.046706   -1.801817    2.458953
     38          6           0       -0.569100    2.670975   -0.018546
     39          6           0       -0.096685    2.154145   -1.235364
     40          6           0       -0.873506    2.232138   -2.389958
     41          6           0       -2.139174    2.817999   -2.363415
     42          6           0       -2.621315    3.330493   -1.162045
     43          6           0       -1.838539    3.256951   -0.009512
     44          1           0        0.857825    1.639094   -1.243001
     45          1           0       -0.479642    1.837069   -3.324322
     46          1           0       -2.738147    2.881061   -3.267759
     47          1           0       -3.603814    3.792685   -1.120313
     48          1           0       -2.223774    3.669999    0.920748
     49          8           0        0.726821    1.542659    1.851370
     50          1           0       -0.315289   -0.046474    0.557136
     51          6           0        1.884680    0.815270    1.232227
     52          8           0        1.501957    0.203022    0.133457
     53          8           0        2.252558   -0.061836    2.281418
     54          1           0        1.558417   -0.745393    2.292796
     55          6           0        3.077216    1.800252    1.131582
     56          1           0        3.006398    2.516861    1.960395
     57          1           0        3.979118    1.208746    1.333469
     58          6           0        0.260618    2.727669    1.268789
     59          1           0       -0.380252    3.191276    2.030494
     60          1           0        1.091815    3.430651    1.107608
     61          6           0       -1.437600    0.113181    3.561400
     62          1           0       -0.556282    0.750019    3.444567
     63          1           0       -2.361441    0.675522    3.414959
     64          1           0       -1.444899   -0.407121    4.520616
     65          6           0        3.261588    2.537858   -0.191783
     66          1           0        3.399190    1.808454   -0.997555
     67          1           0        2.365070    3.104034   -0.462338
     68          6           0        4.457273    3.487514   -0.139063
     69          1           0        4.612870    4.002086   -1.092278
     70          1           0        4.311435    4.250635    0.634344
     71          1           0        5.377706    2.944994    0.107731
     72          6           0        4.945469   -2.074029   -0.417267
     73          1           0        5.558329   -1.999995    0.482791
     74          1           0        5.401403   -2.807003   -1.092105
     75          6           0        4.752779   -0.730063   -1.122814
     76          1           0        4.536819    0.037729   -0.375243
     77          1           0        5.614147   -0.416101   -1.716040
 ---------------------------------------------------------------------

 SCF Done:  E(RM062X) =  -1991.35802303     A.U. after   14 cycles

 The electronic state is 1-A.
 Alpha  occ. eigenvalues --  -90.14291 -19.61882 -19.61850 -19.58611 -19.56668
 Alpha  occ. eigenvalues --  -19.51106 -14.85212 -14.80420 -14.76009 -10.63416
 Alpha  occ. eigenvalues --  -10.62789 -10.62242 -10.62165 -10.60797 -10.59454
 Alpha  occ. eigenvalues --  -10.58345 -10.58001 -10.57970 -10.57185 -10.56896
 Alpha  occ. eigenvalues --  -10.56731 -10.55700 -10.55654 -10.55083 -10.54864
 Alpha  occ. eigenvalues --  -10.54850 -10.54751 -10.54747 -10.54600 -10.54418
 Alpha  occ. eigenvalues --  -10.54383 -10.54341 -10.53043 -10.51425 -10.51374
 Alpha  occ. eigenvalues --  -10.49620  -8.45267  -6.37486  -6.37460  -6.37303
 Alpha  occ. eigenvalues --   -1.22109  -1.13604  -1.13403  -1.10363  -1.09324
 Alpha  occ. eigenvalues --   -1.05820  -1.01873  -0.99251  -0.95789  -0.95003
 Alpha  occ. eigenvalues --   -0.93526  -0.90320  -0.88762  -0.85995  -0.85700
 Alpha  occ. eigenvalues --   -0.84830  -0.84742  -0.84185  -0.83066  -0.82763
 Alpha  occ. eigenvalues --   -0.76685  -0.76199  -0.75822  -0.74314  -0.72867
 Alpha  occ. eigenvalues --   -0.71698  -0.68326  -0.68201  -0.67939  -0.67268
 Alpha  occ. eigenvalues --   -0.66719  -0.65259  -0.64864  -0.63533  -0.60533
 Alpha  occ. eigenvalues --   -0.60403  -0.59759  -0.59168  -0.57797  -0.57634
 Alpha  occ. eigenvalues --   -0.57217  -0.56455  -0.55808  -0.55160  -0.54218
 Alpha  occ. eigenvalues --   -0.53584  -0.52694  -0.52513  -0.52491  -0.51912
 Alpha  occ. eigenvalues --   -0.51561  -0.50987  -0.50639  -0.49902  -0.49498
 Alpha  occ. eigenvalues --   -0.49163  -0.48874  -0.48213  -0.48134  -0.47959
 Alpha  occ. eigenvalues --   -0.47711  -0.47491  -0.46947  -0.46397  -0.46097
 Alpha  occ. eigenvalues --   -0.44912  -0.44737  -0.44184  -0.43844  -0.43272
 Alpha  occ. eigenvalues --   -0.42554  -0.42166  -0.41357  -0.41263  -0.41063
 Alpha  occ. eigenvalues --   -0.40901  -0.40518  -0.39991  -0.39774  -0.39255
 Alpha  occ. eigenvalues --   -0.39239  -0.39090  -0.38422  -0.38032  -0.37641
 Alpha  occ. eigenvalues --   -0.37378  -0.36749  -0.36527  -0.35808  -0.34926
 Alpha  occ. eigenvalues --   -0.34401  -0.34022  -0.31677  -0.31170  -0.29784
 Alpha  occ. eigenvalues --   -0.28868  -0.28607  -0.27682  -0.24685  -0.24297
 Alpha virt. eigenvalues --   -0.01524   0.00384   0.03525   0.03733   0.10123
 Alpha virt. eigenvalues --    0.10919   0.11615   0.12263   0.13148   0.13455
 Alpha virt. eigenvalues --    0.14225   0.14496   0.14753   0.15228   0.15597

 Mulliken charges:
               1
     1  C   -0.306293
     2  C   -0.307255
     3  C   -0.309151
     4  C   -0.060243
     5  C    0.055962
     6  C   -0.310997
     7  H    0.174251
     8  H    0.162980
     9  H    0.165748
    10  H    0.150781
    11  H    0.163726
    12  H    0.208991
    13  H    0.173577
    14  H    0.193865
    15  H    0.163462
    16  H    0.154587
    17  N   -0.431193
    18  C    0.067596
    19  C    0.064721
    20  C   -0.201455
    21  H    0.206130
    22  C   -0.209785
    23  H    0.244636
    24  C    0.446073
    25  H    0.192301
    26  H    0.211389
    27  N   -0.525338
    28  C   -0.169990
    29  H    0.169631
    30  H    0.227764
    31  C   -0.154383
    32  H    0.164610
    33  H    0.207115
    34  N   -0.813354
    35  S    1.251757
    36  O   -0.610457
    37  O   -0.604462
    38  C    0.081624
    39  C   -0.186523
    40  C   -0.190146
    41  C   -0.171752
    42  C   -0.163867
    43  C   -0.211657
    44  H    0.214970
    45  H    0.140368
    46  H    0.154958
    47  H    0.158584
    48  H    0.152400
    49  O   -0.553207
    50  H    0.447103
    51  C    0.722434
    52  O   -0.720274
    53  O   -0.717500
    54  H    0.442938
    55  C   -0.338207
    56  H    0.148068
    57  H    0.151163
    58  C   -0.089450
    59  H    0.138903
    60  H    0.148142
    61  C   -0.663552
    62  H    0.275310
    63  H    0.196566
    64  H    0.217886
    65  C   -0.291079
    66  H    0.133943
    67  H    0.145991
    68  C   -0.473193
    69  H    0.148676
    70  H    0.153512
    71  H    0.145904
    72  C   -0.332105
    73  H    0.186741
    74  H    0.162689
    75  C   -0.342741
    76  H    0.198352
    77  H    0.170732
 Sum of Mulliken charges =  -0.00000

 Dipole moment (field-independent basis, Debye):
    X=             -2.7270    Y=             -2.0326    Z=             -6.2798  Tot=              7.1417
 Quadrupole moment (field-independent basis, Debye-Ang):
   XX=           -206.1662   YY=           -222.2977   ZZ=           -220.1339
   XY=            -12.5867   XZ=             -5.0741   YZ=             10.1276

 Normal termination of Gaussian 16 at Thu Feb  7 13:45:32 2019.
