 Gaussian 16, Revision A.03,
 Gaussian 16:  ES64L-G16RevA.03 25-Dec-2016

 ------------------------------------------
 #p M062X/6-31G* em=gd3 force int=ultrafine
 ------------------------------------------

 -----
 Title
 -----
 Symbolic Z-matrix:
 Charge =  0 Multiplicity = 1

                         Standard orientation:
 ---------------------------------------------------------------------
 Center     Atomic      Atomic             Coordinates (Angstroms)
 Number     Number       Type             X           Y           Z
 ---------------------------------------------------------------------
      1          6           0       -4.783556    0.323841   -0.660681
      2          6           0       -4.919125   -0.983668   -1.446713
      3          6           0       -3.564506   -1.418571   -2.019062
      4          6           0       -2.578713   -1.584697   -0.868398
      5          6           0       -2.397102   -0.250722   -0.097876
      6          6           0       -3.749145    0.205501    0.463002
      7          1           0       -3.650302   -2.353382   -2.583442
      8          1           0       -5.302285   -1.773227   -0.787054
      9          1           0       -5.641858   -0.867880   -2.260490
     10          1           0       -4.476813    1.123873   -1.347025
     11          1           0       -5.753547    0.612746   -0.242975
     12          1           0       -2.959533   -2.338645   -0.172450
     13          1           0       -2.075615    0.499390   -0.832004
     14          1           0       -4.095839   -0.510849    1.215104
     15          1           0       -3.605702    1.173977    0.953516
     16          1           0       -3.217102   -0.638556   -2.709962
     17          7           0       -1.235111   -2.048922   -1.271512
     18          6           0       -0.549572   -1.398514   -2.248128
     19          6           0       -0.536480   -2.789912   -0.369541
     20          6           0        0.808462   -1.432471   -2.328049
     21          1           0       -1.144657   -0.822500   -2.945893
     22          6           0        0.822278   -2.847049   -0.366376
     23          1           0       -1.128606   -3.278566    0.396590
     24          6           0        1.560599   -2.062237   -1.291882
     25          1           0        1.297679   -0.894676   -3.128610
     26          1           0        1.308532   -3.392615    0.429909
     27          7           0        2.879444   -1.929550   -1.199210
     28          6           0        3.602511   -2.294997    0.029238
     29          1           0        3.502011   -3.364860    0.231703
     30          1           0        3.184124   -1.707800    0.860531
     31          6           0        3.602982   -0.905059   -1.961837
     32          1           0        3.855469   -1.287683   -2.958410
     33          1           0        2.968141   -0.019741   -2.058404
     34          7           0       -1.304180   -0.302859    0.860066
     35         16           0       -1.385566   -1.122630    2.265106
     36          8           0       -2.570685   -1.986008    2.236487
     37          8           0       -0.089675   -1.761575    2.513038
     38          6           0       -0.648443    2.705271    0.038474
     39          6           0       -0.174938    2.244822   -1.200020
     40          6           0       -0.972868    2.321059   -2.339501
     41          6           0       -2.262463    2.849820   -2.274460
     42          6           0       -2.747601    3.301949   -1.050973
     43          6           0       -1.942121    3.230932    0.086173
     44          1           0        0.800033    1.775035   -1.242010
     45          1           0       -0.578940    1.970655   -3.290962
     46          1           0       -2.879304    2.913103   -3.166762
     47          1           0       -3.750123    3.715453   -0.979087
     48          1           0       -2.328388    3.599189    1.034782
     49          8           0        0.670136    1.593757    1.901590
     50          1           0       -0.309762   -0.058177    0.558218
     51          6           0        1.790702    0.849731    1.257714
     52          8           0        1.368634    0.236492    0.169591
     53          8           0        2.182261   -0.026742    2.299179
     54          1           0        1.471866   -0.692408    2.354899
     55          6           0        3.008693    1.801248    1.107966
     56          1           0        2.989236    2.528160    1.930029
     57          1           0        3.891574    1.175181    1.291363
     58          6           0        0.209556    2.775138    1.304761
     59          1           0       -0.403986    3.265301    2.071600
     60          1           0        1.050082    3.456848    1.109011
     61          6           0       -1.596006    0.116220    3.522557
     62          1           0       -0.736763    0.786494    3.431753
     63          1           0       -2.534507    0.639253    3.330810
     64          1           0       -1.621446   -0.389882    4.488983
     65          6           0        3.187232    2.509296   -0.232017
     66          1           0        3.102577    1.769721   -1.036247
     67          1           0        2.385023    3.233419   -0.414163
     68          6           0        4.534576    3.226226   -0.319561
     69          1           0        4.664409    3.731014   -1.281945
     70          1           0        4.627061    3.979928    0.469821
     71          1           0        5.364353    2.520790   -0.193868
     72          6           0        5.037886   -1.888993   -0.287936
     73          1           0        5.622563   -1.722229    0.618607
     74          1           0        5.529326   -2.667404   -0.881657
     75          6           0        4.846973   -0.615499   -1.116000
     76          1           0        4.630863    0.221122   -0.447223
     77          1           0        5.713906   -0.357574   -1.727994
 ---------------------------------------------------------------------

 SCF Done:  E(RM062X) =  -1991.35893566     A.U. after   14 cycles

 The electronic state is 1-A.
 Alpha  occ. eigenvalues --  -90.14053 -19.61673 -19.61657 -19.58787 -19.56739
 Alpha  occ. eigenvalues --  -19.51387 -14.85122 -14.80458 -14.75467 -10.63379
 Alpha  occ. eigenvalues --  -10.62753 -10.62323 -10.62062 -10.60652 -10.59210
 Alpha  occ. eigenvalues --  -10.58721 -10.57915 -10.57879 -10.57056 -10.56860
 Alpha  occ. eigenvalues --  -10.56655 -10.55603 -10.55580 -10.55193 -10.55040
 Alpha  occ. eigenvalues --  -10.54758 -10.54714 -10.54642 -10.54485 -10.54320
 Alpha  occ. eigenvalues --  -10.54243 -10.54191 -10.53097 -10.51681 -10.51583
 Alpha  occ. eigenvalues --  -10.49806  -8.45032  -6.37247  -6.37227  -6.37070
 Alpha  occ. eigenvalues --   -1.21885  -1.13666  -1.13464  -1.10134  -1.09358
 Alpha  occ. eigenvalues --   -1.05906  -1.01585  -0.99413  -0.95677  -0.94932
 Alpha  occ. eigenvalues --   -0.93456  -0.90231  -0.88755  -0.85908  -0.85811
 Alpha  occ. eigenvalues --   -0.84783  -0.84643  -0.84332  -0.83007  -0.82603
 Alpha  occ. eigenvalues --   -0.76639  -0.76365  -0.75829  -0.74397  -0.72703
 Alpha  occ. eigenvalues --   -0.71561  -0.68343  -0.68292  -0.67909  -0.67145
 Alpha  occ. eigenvalues --   -0.66757  -0.65186  -0.64865  -0.63520  -0.60576
 Alpha  occ. eigenvalues --   -0.60407  -0.59797  -0.58831  -0.57839  -0.57545
 Alpha  occ. eigenvalues --   -0.57125  -0.56420  -0.55694  -0.55154  -0.54165
 Alpha  occ. eigenvalues --   -0.53446  -0.52627  -0.52388  -0.52348  -0.51867
 Alpha  occ. eigenvalues --   -0.51519  -0.51089  -0.50951  -0.49840  -0.49593
 Alpha  occ. eigenvalues --   -0.49159  -0.48802  -0.48206  -0.48106  -0.48066
 Alpha  occ. eigenvalues --   -0.47617  -0.47423  -0.46891  -0.46470  -0.46090
 Alpha  occ. eigenvalues --   -0.44928  -0.44657  -0.44075  -0.43880  -0.43247
 Alpha  occ. eigenvalues --   -0.42437  -0.42074  -0.41566  -0.41435  -0.41196
 Alpha  occ. eigenvalues --   -0.40875  -0.40440  -0.40018  -0.39854  -0.39509
 Alpha  occ. eigenvalues --   -0.39240  -0.39039  -0.38439  -0.37874  -0.37579
 Alpha  occ. eigenvalues --   -0.37349  -0.36731  -0.36565  -0.35676  -0.34869
 Alpha  occ. eigenvalues --   -0.34338  -0.33877  -0.31751  -0.30962  -0.29705
 Alpha  occ. eigenvalues --   -0.28882  -0.28546  -0.27564  -0.24990  -0.24523
 Alpha virt. eigenvalues --   -0.01405   0.00498   0.03627   0.03844   0.10207
 Alpha virt. eigenvalues --    0.11062   0.11565   0.12084   0.13215   0.13547
 Alpha virt. eigenvalues --    0.14210   0.14679   0.14817   0.15363   0.15598

 Mulliken charges:
               1
     1  C   -0.306057
     2  C   -0.306884
     3  C   -0.310286
     4  C   -0.059036
     5  C    0.056975
     6  C   -0.311782
     7  H    0.173724
     8  H    0.162866
     9  H    0.165080
    10  H    0.150488
    11  H    0.162895
    12  H    0.208364
    13  H    0.172425
    14  H    0.193708
    15  H    0.163279
    16  H    0.153665
    17  N   -0.432574
    18  C    0.070133
    19  C    0.064687
    20  C   -0.205456
    21  H    0.207028
    22  C   -0.209191
    23  H    0.245852
    24  C    0.451159
    25  H    0.190773
    26  H    0.211779
    27  N   -0.529404
    28  C   -0.176064
    29  H    0.169944
    30  H    0.237074
    31  C   -0.153991
    32  H    0.168458
    33  H    0.200332
    34  N   -0.817264
    35  S    1.253960
    36  O   -0.611598
    37  O   -0.609597
    38  C    0.091246
    39  C   -0.177524
    40  C   -0.188777
    41  C   -0.170507
    42  C   -0.163601
    43  C   -0.212092
    44  H    0.202786
    45  H    0.141334
    46  H    0.154499
    47  H    0.158157
    48  H    0.152030
    49  O   -0.547775
    50  H    0.449735
    51  C    0.728196
    52  O   -0.724540
    53  O   -0.718221
    54  H    0.445801
    55  C   -0.337322
    56  H    0.150359
    57  H    0.148085
    58  C   -0.094877
    59  H    0.141388
    60  H    0.146650
    61  C   -0.662644
    62  H    0.270614
    63  H    0.196330
    64  H    0.217344
    65  C   -0.295883
    66  H    0.141892
    67  H    0.147012
    68  C   -0.476188
    69  H    0.149522
    70  H    0.156326
    71  H    0.143995
    72  C   -0.331896
    73  H    0.187563
    74  H    0.163741
    75  C   -0.344381
    76  H    0.194216
    77  H    0.171944
 Sum of Mulliken charges =  -0.00000

 Dipole moment (field-independent basis, Debye):
    X=             -2.0722    Y=             -1.9255    Z=             -6.4920  Tot=              7.0815
 Quadrupole moment (field-independent basis, Debye-Ang):
   XX=           -204.6724   YY=           -223.2265   ZZ=           -219.9066
   XY=            -12.0953   XZ=             -5.2143   YZ=             10.2095

 Normal termination of Gaussian 16 at Thu Feb  7 17:12:28 2019.
