 Gaussian 16, Revision A.03,
 Gaussian 16:  ES64L-G16RevA.03 25-Dec-2016

 ------------------------------------------
 #p M062X/6-31G* em=gd3 force int=ultrafine
 ------------------------------------------

 -----
 Title
 -----
 Symbolic Z-matrix:
 Charge =  0 Multiplicity = 1

                         Standard orientation:
 ---------------------------------------------------------------------
 Center     Atomic      Atomic             Coordinates (Angstroms)
 Number     Number       Type             X           Y           Z
 ---------------------------------------------------------------------
      1          6           0       -4.841681    0.502438   -0.520721
      2          6           0       -5.005447   -0.766283   -1.362678
      3          6           0       -3.660263   -1.206061   -1.953205
      4          6           0       -2.673408   -1.452771   -0.816491
      5          6           0       -2.478956   -0.169292    0.027029
      6          6           0       -3.819410    0.301147    0.601105
      7          1           0       -3.767367   -2.109355   -2.563208
      8          1           0       -5.408767   -1.573942   -0.737808
      9          1           0       -5.722979   -0.599285   -2.172059
     10          1           0       -4.502251    1.322290   -1.168592
     11          1           0       -5.806381    0.802981   -0.099479
     12          1           0       -3.061037   -2.243164   -0.165696
     13          1           0       -2.125813    0.608050   -0.663286
     14          1           0       -4.186470   -0.436111    1.323725
     15          1           0       -3.645063    1.242906    1.134417
     16          1           0       -3.294578   -0.400645   -2.604282
     17          7           0       -1.339263   -1.912766   -1.259613
     18          6           0       -0.658955   -1.237241   -2.222317
     19          6           0       -0.641174   -2.727991   -0.426420
     20          6           0        0.692463   -1.327172   -2.359980
     21          1           0       -1.250346   -0.594688   -2.861633
     22          6           0        0.712138   -2.858697   -0.492337
     23          1           0       -1.223842   -3.232401    0.336612
     24          6           0        1.456693   -2.072812   -1.413881
     25          1           0        1.175862   -0.762144   -3.145885
     26          1           0        1.198968   -3.480645    0.245484
     27          7           0        2.785547   -2.042012   -1.392053
     28          6           0        3.527903   -2.571916   -0.237772
     29          1           0        3.391151   -3.653854   -0.153502
     30          1           0        3.156750   -2.067768    0.665550
     31          6           0        3.552523   -0.988815   -2.079812
     32          1           0        3.809598   -1.317301   -3.094578
     33          1           0        2.958620   -0.072726   -2.110540
     34          7           0       -1.392833   -0.316904    0.978958
     35         16           0       -1.429864   -1.220094    2.332569
     36          8           0       -2.638826   -2.046729    2.282875
     37          8           0       -0.141338   -1.899734    2.483739
     38          6           0       -0.593606    2.714376   -0.063854
     39          6           0       -0.066691    2.082852   -1.198129
     40          6           0       -0.743874    2.152520   -2.414834
     41          6           0       -1.965910    2.818246   -2.515184
     42          6           0       -2.504596    3.429993   -1.384704
     43          6           0       -1.817022    3.380456   -0.172264
     44          1           0        0.850753    1.502876   -1.089457
     45          1           0       -0.312205    1.682302   -3.296359
     46          1           0       -2.490845    2.866131   -3.465158
     47          1           0       -3.457900    3.947581   -1.447143
     48          1           0       -2.242001    3.860917    0.706855
     49          8           0        0.577160    1.372380    1.621832
     50          1           0       -0.560863    0.326675    0.974082
     51          6           0        2.079527    0.717626    1.197434
     52          8           0        1.977694    0.177941    0.052867
     53          8           0        2.210595   -0.137322    2.291307
     54          1           0        1.543087   -0.837598    2.168102
     55          6           0        3.079457    1.863750    1.388037
     56          1           0        2.766866    2.501731    2.222848
     57          1           0        4.021169    1.393203    1.702162
     58          6           0        0.138850    2.648064    1.270618
     59          1           0       -0.554419    3.008953    2.049929
     60          1           0        0.971370    3.369654    1.258857
     61          6           0       -1.522691   -0.040578    3.662107
     62          1           0       -0.661533    0.621554    3.524515
     63          1           0       -2.465652    0.502096    3.579126
     64          1           0       -1.461705   -0.584446    4.605897
     65          6           0        3.329465    2.679184    0.122651
     66          1           0        3.695325    2.006922   -0.661994
     67          1           0        2.389886    3.090602   -0.264343
     68          6           0        4.326254    3.811006    0.358340
     69          1           0        4.520394    4.377863   -0.557371
     70          1           0        3.950750    4.511267    1.112836
     71          1           0        5.282932    3.420027    0.722410
     72          6           0        4.968141   -2.171736   -0.536454
     73          1           0        5.575250   -2.135032    0.369971
     74          1           0        5.424447   -2.883579   -1.233410
     75          6           0        4.787213   -0.803357   -1.195158
     76          1           0        4.538849   -0.064790   -0.427720
     77          1           0        5.659704   -0.467729   -1.759747
 ---------------------------------------------------------------------

 SCF Done:  E(RM062X) =  -1991.35532430     A.U. after   15 cycles

 The electronic state is 1-A.
 Alpha  occ. eigenvalues --  -90.14422 -19.62153 -19.61819 -19.57923 -19.57451
 Alpha  occ. eigenvalues --  -19.51998 -14.85203 -14.80168 -14.75831 -10.63237
 Alpha  occ. eigenvalues --  -10.62808 -10.62645 -10.62149 -10.60972 -10.59627
 Alpha  occ. eigenvalues --  -10.57987 -10.57898 -10.57816 -10.57026 -10.56787
 Alpha  occ. eigenvalues --  -10.56573 -10.56216 -10.55772 -10.55000 -10.54959
 Alpha  occ. eigenvalues --  -10.54925 -10.54874 -10.54803 -10.54554 -10.54522
 Alpha  occ. eigenvalues --  -10.54278 -10.54212 -10.53083 -10.51232 -10.51169
 Alpha  occ. eigenvalues --  -10.49991  -8.45407  -6.37631  -6.37578  -6.37462
 Alpha  occ. eigenvalues --   -1.22235  -1.13460  -1.12934  -1.10432  -1.08999
 Alpha  occ. eigenvalues --   -1.05637  -1.01994  -1.01597  -0.95766  -0.95051
 Alpha  occ. eigenvalues --   -0.93475  -0.90146  -0.88624  -0.86332  -0.85654
 Alpha  occ. eigenvalues --   -0.84788  -0.84587  -0.83913  -0.83210  -0.82871
 Alpha  occ. eigenvalues --   -0.76600  -0.76315  -0.75625  -0.73575  -0.73057
 Alpha  occ. eigenvalues --   -0.71692  -0.68218  -0.68053  -0.67819  -0.67385
 Alpha  occ. eigenvalues --   -0.66431  -0.65370  -0.64780  -0.63350  -0.60478
 Alpha  occ. eigenvalues --   -0.60309  -0.59875  -0.59378  -0.57894  -0.57683
 Alpha  occ. eigenvalues --   -0.57197  -0.56338  -0.55520  -0.54843  -0.54229
 Alpha  occ. eigenvalues --   -0.53495  -0.52891  -0.52544  -0.52268  -0.51876
 Alpha  occ. eigenvalues --   -0.51568  -0.50995  -0.50278  -0.50013  -0.49514
 Alpha  occ. eigenvalues --   -0.49155  -0.48894  -0.48448  -0.48138  -0.48092
 Alpha  occ. eigenvalues --   -0.47737  -0.47493  -0.47038  -0.46565  -0.45962
 Alpha  occ. eigenvalues --   -0.45277  -0.45138  -0.44503  -0.44159  -0.43184
 Alpha  occ. eigenvalues --   -0.42469  -0.42294  -0.41239  -0.41065  -0.40847
 Alpha  occ. eigenvalues --   -0.40534  -0.40436  -0.40138  -0.39989  -0.39480
 Alpha  occ. eigenvalues --   -0.39106  -0.38972  -0.38654  -0.38147  -0.37706
 Alpha  occ. eigenvalues --   -0.37475  -0.36703  -0.36491  -0.35867  -0.35058
 Alpha  occ. eigenvalues --   -0.34739  -0.34277  -0.32207  -0.30918  -0.29844
 Alpha  occ. eigenvalues --   -0.28840  -0.28603  -0.27872  -0.25288  -0.24599
 Alpha virt. eigenvalues --   -0.01286   0.00532   0.03316   0.03778   0.10212
 Alpha virt. eigenvalues --    0.10696   0.11447   0.12449   0.13238   0.13348
 Alpha virt. eigenvalues --    0.14184   0.14417   0.15159   0.15510   0.15571

 Mulliken charges:
               1
     1  C   -0.306715
     2  C   -0.307635
     3  C   -0.311614
     4  C   -0.061939
     5  C    0.066567
     6  C   -0.306844
     7  H    0.174703
     8  H    0.163062
     9  H    0.166359
    10  H    0.152302
    11  H    0.164351
    12  H    0.208536
    13  H    0.173332
    14  H    0.190688
    15  H    0.160041
    16  H    0.156765
    17  N   -0.435971
    18  C    0.083831
    19  C    0.084472
    20  C   -0.213677
    21  H    0.203522
    22  C   -0.223239
    23  H    0.245643
    24  C    0.446402
    25  H    0.192191
    26  H    0.209479
    27  N   -0.519438
    28  C   -0.162629
    29  H    0.168721
    30  H    0.216941
    31  C   -0.145610
    32  H    0.161945
    33  H    0.204623
    34  N   -0.816486
    35  S    1.238159
    36  O   -0.606323
    37  O   -0.596762
    38  C    0.050561
    39  C   -0.198824
    40  C   -0.192361
    41  C   -0.173279
    42  C   -0.164550
    43  C   -0.205633
    44  H    0.232740
    45  H    0.139801
    46  H    0.155565
    47  H    0.159353
    48  H    0.154371
    49  O   -0.627343
    50  H    0.454028
    51  C    0.704425
    52  O   -0.657200
    53  O   -0.691127
    54  H    0.439376
    55  C   -0.337967
    56  H    0.151314
    57  H    0.150616
    58  C   -0.068248
    59  H    0.121926
    60  H    0.148334
    61  C   -0.667971
    62  H    0.265318
    63  H    0.199907
    64  H    0.222467
    65  C   -0.286536
    66  H    0.143318
    67  H    0.144295
    68  C   -0.475713
    69  H    0.149538
    70  H    0.150241
    71  H    0.148711
    72  C   -0.334716
    73  H    0.184407
    74  H    0.161417
    75  C   -0.338033
    76  H    0.203909
    77  H    0.165813
 Sum of Mulliken charges =  -0.00000

 Dipole moment (field-independent basis, Debye):
    X=             -2.9701    Y=             -1.6165    Z=             -5.8155  Tot=              6.7272
 Quadrupole moment (field-independent basis, Debye-Ang):
   XX=           -206.7146   YY=           -223.5530   ZZ=           -218.2790
   XY=            -13.4602   XZ=             -4.1842   YZ=             10.7201

 Normal termination of Gaussian 16 at Thu Feb  7 08:36:03 2019.
