 Gaussian 16, Revision A.03,
 Gaussian 16:  ES64L-G16RevA.03 25-Dec-2016

 ------------------------------------------
 #p M062X/6-31G* em=gd3 force int=ultrafine
 ------------------------------------------

 -----
 Title
 -----
 Symbolic Z-matrix:
 Charge =  0 Multiplicity = 1

                         Standard orientation:
 ---------------------------------------------------------------------
 Center     Atomic      Atomic             Coordinates (Angstroms)
 Number     Number       Type             X           Y           Z
 ---------------------------------------------------------------------
      1          6           0       -4.782773    0.260916   -0.729957
      2          6           0       -4.892713   -1.069504   -1.480685
      3          6           0       -3.525288   -1.504234   -2.021425
      4          6           0       -2.552731   -1.625563   -0.853842
      5          6           0       -2.398483   -0.269286   -0.116870
      6          6           0       -3.764678    0.183847    0.411955
      7          1           0       -3.592059   -2.455677   -2.560063
      8          1           0       -5.276410   -1.844487   -0.804286
      9          1           0       -5.604849   -0.985208   -2.307594
     10          1           0       -4.473963    1.045184   -1.433506
     11          1           0       -5.761985    0.550763   -0.335012
     12          1           0       -2.933035   -2.365357   -0.142488
     13          1           0       -2.075173    0.465497   -0.865757
     14          1           0       -4.114646   -0.518082    1.175849
     15          1           0       -3.640894    1.165670    0.880474
     16          1           0       -3.178173   -0.740039   -2.729826
     17          7           0       -1.198983   -2.083931   -1.228296
     18          6           0       -0.513371   -1.461921   -2.222929
     19          6           0       -0.499812   -2.788088   -0.297549
     20          6           0        0.845093   -1.489500   -2.295661
     21          1           0       -1.108941   -0.915691   -2.943719
     22          6           0        0.859290   -2.834261   -0.285291
     23          1           0       -1.092591   -3.256390    0.480642
     24          6           0        1.596410   -2.077918   -1.235126
     25          1           0        1.334448   -0.976860   -3.112398
     26          1           0        1.345693   -3.348007    0.531902
     27          7           0        2.914472   -1.935804   -1.144602
     28          6           0        3.639793   -2.259973    0.094063
     29          1           0        3.542230   -3.323417    0.329765
     30          1           0        3.220297   -1.649453    0.908020
     31          6           0        3.635463   -0.938003   -1.943590
     32          1           0        3.885191   -1.354179   -2.927357
     33          1           0        2.999884   -0.056796   -2.070013
     34          7           0       -1.318785   -0.282430    0.857441
     35         16           0       -1.412977   -1.064761    2.282594
     36          8           0       -2.592505   -1.936050    2.264319
     37          8           0       -0.117194   -1.689817    2.564542
     38          6           0       -0.667358    2.710317    0.010139
     39          6           0       -0.198103    2.248520   -1.229457
     40          6           0       -1.005265    2.309776   -2.363147
     41          6           0       -2.300859    2.823138   -2.290221
     42          6           0       -2.782886    3.273796   -1.065027
     43          6           0       -1.967615    3.218981    0.066036
     44          1           0        0.782292    1.790313   -1.277607
     45          1           0       -0.614712    1.959211   -3.315900
     46          1           0       -2.924996    2.874983   -3.178129
     47          1           0       -3.790000    3.674107   -0.987573
     48          1           0       -2.350911    3.586588    1.016237
     49          8           0        0.663130    1.627328    1.881649
     50          1           0       -0.320750   -0.043027    0.556668
     51          6           0        1.775249    0.871441    1.237598
     52          8           0        1.342296    0.249745    0.158230
     53          8           0        2.172065    0.004606    2.285864
     54          1           0        1.451810   -0.646883    2.367775
     55          6           0        2.997655    1.814458    1.069042
     56          1           0        2.985418    2.552868    1.880940
     57          1           0        3.878051    1.186783    1.257510
     58          6           0        0.201500    2.799939    1.267655
     59          1           0       -0.403829    3.305374    2.030979
     60          1           0        1.042912    3.474674    1.053296
     61          6           0       -1.646091    0.207782    3.501934
     62          1           0       -0.787292    0.877417    3.405205
     63          1           0       -2.582811    0.722300    3.281510
     64          1           0       -1.684297   -0.270660    4.481602
     65          6           0        3.174726    2.503093   -0.281131
     66          1           0        3.090699    1.751431   -1.074214
     67          1           0        2.371347    3.222717   -0.473656
     68          6           0        4.519271    3.222540   -0.379466
     69          1           0        4.648784    3.710306   -1.350648
     70          1           0        4.607687    3.990500    0.396406
     71          1           0        5.351863    2.522953   -0.239754
     72          6           0        5.074252   -1.862229   -0.238528
     73          1           0        5.659472   -1.662323    0.660969
     74          1           0        5.566793   -2.660466   -0.804355
     75          6           0        4.882203   -0.619426   -1.112114
     76          1           0        4.670807    0.242509   -0.474612
     77          1           0        5.747734   -0.386138   -1.735843
 ---------------------------------------------------------------------

 SCF Done:  E(RM062X) =  -1991.35899087     A.U. after   14 cycles

 The electronic state is 1-A.
 Alpha  occ. eigenvalues --  -90.14025 -19.61639 -19.61634 -19.58816 -19.56758
 Alpha  occ. eigenvalues --  -19.51409 -14.85105 -14.80461 -14.75400 -10.63360
 Alpha  occ. eigenvalues --  -10.62729 -10.62346 -10.62023 -10.60631 -10.59177
 Alpha  occ. eigenvalues --  -10.58787 -10.57872 -10.57867 -10.57024 -10.56844
 Alpha  occ. eigenvalues --  -10.56649 -10.55587 -10.55578 -10.55230 -10.55111
 Alpha  occ. eigenvalues --  -10.54706 -10.54695 -10.54590 -10.54428 -10.54279
 Alpha  occ. eigenvalues --  -10.54202 -10.54139 -10.53081 -10.51706 -10.51600
 Alpha  occ. eigenvalues --  -10.49827  -8.45004  -6.37218  -6.37198  -6.37042
 Alpha  occ. eigenvalues --   -1.21856  -1.13676  -1.13435  -1.10101  -1.09363
 Alpha  occ. eigenvalues --   -1.05910  -1.01547  -0.99439  -0.95656  -0.94882
 Alpha  occ. eigenvalues --   -0.93446  -0.90205  -0.88757  -0.85937  -0.85802
 Alpha  occ. eigenvalues --   -0.84748  -0.84614  -0.84362  -0.82969  -0.82580
 Alpha  occ. eigenvalues --   -0.76629  -0.76384  -0.75826  -0.74379  -0.72680
 Alpha  occ. eigenvalues --   -0.71536  -0.68359  -0.68297  -0.67878  -0.67125
 Alpha  occ. eigenvalues --   -0.66745  -0.65162  -0.64856  -0.63518  -0.60569
 Alpha  occ. eigenvalues --   -0.60403  -0.59791  -0.58785  -0.57861  -0.57521
 Alpha  occ. eigenvalues --   -0.57106  -0.56410  -0.55662  -0.55161  -0.54165
 Alpha  occ. eigenvalues --   -0.53415  -0.52612  -0.52375  -0.52328  -0.51829
 Alpha  occ. eigenvalues --   -0.51504  -0.51104  -0.50950  -0.49833  -0.49585
 Alpha  occ. eigenvalues --   -0.49160  -0.48795  -0.48215  -0.48106  -0.48052
 Alpha  occ. eigenvalues --   -0.47604  -0.47411  -0.46885  -0.46469  -0.46081
 Alpha  occ. eigenvalues --   -0.44939  -0.44630  -0.44049  -0.43864  -0.43240
 Alpha  occ. eigenvalues --   -0.42414  -0.42067  -0.41610  -0.41449  -0.41218
 Alpha  occ. eigenvalues --   -0.40870  -0.40425  -0.40022  -0.39868  -0.39563
 Alpha  occ. eigenvalues --   -0.39226  -0.39032  -0.38405  -0.37852  -0.37575
 Alpha  occ. eigenvalues --   -0.37332  -0.36735  -0.36554  -0.35661  -0.34867
 Alpha  occ. eigenvalues --   -0.34326  -0.33858  -0.31792  -0.30927  -0.29665
 Alpha  occ. eigenvalues --   -0.28875  -0.28495  -0.27526  -0.25006  -0.24542
 Alpha virt. eigenvalues --   -0.01352   0.00539   0.03671   0.03894   0.10260
 Alpha virt. eigenvalues --    0.11074   0.11508   0.12060   0.13215   0.13529
 Alpha virt. eigenvalues --    0.14252   0.14684   0.14851   0.15419   0.15609

 Mulliken charges:
               1
     1  C   -0.306042
     2  C   -0.306816
     3  C   -0.310612
     4  C   -0.058675
     5  C    0.056494
     6  C   -0.311558
     7  H    0.173731
     8  H    0.162947
     9  H    0.164956
    10  H    0.150205
    11  H    0.162806
    12  H    0.208297
    13  H    0.172172
    14  H    0.194035
    15  H    0.163217
    16  H    0.153494
    17  N   -0.433539
    18  C    0.070990
    19  C    0.065663
    20  C   -0.206498
    21  H    0.207216
    22  C   -0.209818
    23  H    0.245859
    24  C    0.453437
    25  H    0.190537
    26  H    0.211737
    27  N   -0.530924
    28  C   -0.178266
    29  H    0.169984
    30  H    0.239847
    31  C   -0.154245
    32  H    0.168983
    33  H    0.199954
    34  N   -0.817505
    35  S    1.254259
    36  O   -0.611279
    37  O   -0.610050
    38  C    0.093542
    39  C   -0.176156
    40  C   -0.188497
    41  C   -0.170272
    42  C   -0.163530
    43  C   -0.212003
    44  H    0.201010
    45  H    0.141819
    46  H    0.154278
    47  H    0.157878
    48  H    0.151578
    49  O   -0.547746
    50  H    0.449974
    51  C    0.728850
    52  O   -0.724375
    53  O   -0.718169
    54  H    0.446005
    55  C   -0.337087
    56  H    0.150643
    57  H    0.146870
    58  C   -0.096000
    59  H    0.141461
    60  H    0.146477
    61  C   -0.662580
    62  H    0.269655
    63  H    0.196377
    64  H    0.217339
    65  C   -0.295846
    66  H    0.142142
    67  H    0.147234
    68  C   -0.476745
    69  H    0.149679
    70  H    0.156528
    71  H    0.144168
    72  C   -0.331974
    73  H    0.187474
    74  H    0.164014
    75  C   -0.344750
    76  H    0.193453
    77  H    0.172288
 Sum of Mulliken charges =  -0.00000

 Dipole moment (field-independent basis, Debye):
    X=             -1.9024    Y=             -2.0669    Z=             -6.4910  Tot=              7.0728
 Quadrupole moment (field-independent basis, Debye-Ang):
   XX=           -204.2847   YY=           -223.0054   ZZ=           -220.1532
   XY=            -12.0996   XZ=             -4.9727   YZ=             10.3998

 Normal termination of Gaussian 16 at Thu Feb  7 18:01:30 2019.
