 Gaussian 16, Revision A.03,
 Gaussian 16:  ES64L-G16RevA.03 25-Dec-2016

 ------------------------------------------
 #p M062X/6-31G* em=gd3 force int=ultrafine
 ------------------------------------------

 -----
 Title
 -----
 Symbolic Z-matrix:
 Charge =  0 Multiplicity = 1

                         Standard orientation:
 ---------------------------------------------------------------------
 Center     Atomic      Atomic             Coordinates (Angstroms)
 Number     Number       Type             X           Y           Z
 ---------------------------------------------------------------------
      1          6           0       -4.870077    0.104632   -0.433362
      2          6           0       -4.924219   -1.185103   -1.257830
      3          6           0       -3.547132   -1.515422   -1.846108
      4          6           0       -2.540903   -1.638283   -0.706350
      5          6           0       -2.432149   -0.310080    0.096246
      6          6           0       -3.816168    0.020903    0.675053
      7          1           0       -3.578043   -2.441480   -2.431693
      8          1           0       -5.252762   -2.016228   -0.620078
      9          1           0       -5.656230   -1.094395   -2.067152
     10          1           0       -4.616955    0.942063   -1.098816
     11          1           0       -5.856337    0.319541   -0.008329
     12          1           0       -2.858620   -2.432638   -0.025499
     13          1           0       -2.213912    0.464766   -0.653869
     14          1           0       -4.093149   -0.744357    1.411320
     15          1           0       -3.738081    0.980478    1.200186
     16          1           0       -3.260682   -0.698230   -2.522429
     17          7           0       -1.178507   -2.015990   -1.148954
     18          6           0       -0.563104   -1.340907   -2.146876
     19          6           0       -0.426784   -2.765701   -0.308682
     20          6           0        0.790515   -1.374454   -2.322264
     21          1           0       -1.203808   -0.748512   -2.787296
     22          6           0        0.932189   -2.843950   -0.417250
     23          1           0       -0.964524   -3.257028    0.495089
     24          6           0        1.608742   -2.064870   -1.385663
     25          1           0        1.224409   -0.817618   -3.142316
     26          1           0        1.465927   -3.415530    0.329001
     27          7           0        2.945360   -1.970389   -1.400578
     28          6           0        3.738473   -2.456627   -0.264558
     29          1           0        3.683520   -3.546806   -0.191861
     30          1           0        3.344212   -2.015898    0.661875
     31          6           0        3.641865   -0.897716   -2.126783
     32          1           0        3.902470   -1.233437   -3.137980
     33          1           0        2.999690   -0.014980   -2.185675
     34          7           0       -1.305678   -0.272381    1.005529
     35         16           0       -1.268900   -1.203138    2.280919
     36          8           0       -2.269562   -2.293470    2.264237
     37          8           0        0.128156   -1.659509    2.517421
     38          6           0       -1.079266    2.860933   -0.167612
     39          6           0       -0.377209    2.179272   -1.167948
     40          6           0       -0.926447    2.058730   -2.442496
     41          6           0       -2.191179    2.576254   -2.724567
     42          6           0       -2.904230    3.228535   -1.721198
     43          6           0       -2.344818    3.371551   -0.453429
     44          1           0        0.574803    1.708875   -0.927666
     45          1           0       -0.364541    1.550984   -3.223269
     46          1           0       -2.619158    2.472868   -3.717309
     47          1           0       -3.895382    3.624708   -1.921926
     48          1           0       -2.901634    3.877016    0.332585
     49          8           0        0.237627    1.900285    1.631301
     50          1           0       -0.285613    1.091827    1.350306
     51          6           0        2.438868    0.646227    1.209899
     52          8           0        2.112641    0.208598    0.119886
     53          8           0        2.221383    0.013161    2.351221
     54          1           0        1.516277   -0.683054    2.241160
     55          6           0        3.193355    1.941633    1.397288
     56          1           0        2.705769    2.475507    2.218421
     57          1           0        4.210885    1.699522    1.735802
     58          6           0       -0.483261    3.023671    1.214976
     59          1           0       -1.289008    3.281242    1.922404
     60          1           0        0.217747    3.871240    1.213635
     61          6           0       -1.632571   -0.162039    3.691404
     62          1           0       -0.922445    0.668072    3.665368
     63          1           0       -2.656530    0.203158    3.591059
     64          1           0       -1.516875   -0.748200    4.604015
     65          6           0        3.223910    2.788244    0.131269
     66          1           0        3.650196    2.202609   -0.692326
     67          1           0        2.192265    3.013956   -0.161474
     68          6           0        4.010127    4.082343    0.317058
     69          1           0        4.033071    4.669710   -0.605443
     70          1           0        3.561860    4.703816    1.099351
     71          1           0        5.045471    3.876840    0.610269
     72          6           0        5.146459   -1.952546   -0.569175
     73          1           0        5.744829   -1.846089    0.337873
     74          1           0        5.659394   -2.647992   -1.241343
     75          6           0        4.882461   -0.619438   -1.273345
     76          1           0        4.631654    0.145199   -0.532693
     77          1           0        5.727350   -0.267269   -1.868679
 ---------------------------------------------------------------------

 SCF Done:  E(RM062X) =  -1991.38856215     A.U. after   15 cycles

 The electronic state is 1-A.
 Alpha  occ. eigenvalues --  -90.10342 -19.63382 -19.60090 -19.59197 -19.58549
 Alpha  occ. eigenvalues --  -19.58339 -14.84797 -14.80492 -14.69370 -10.65489
 Alpha  occ. eigenvalues --  -10.63223 -10.62404 -10.61503 -10.59130 -10.59065
 Alpha  occ. eigenvalues --  -10.59044 -10.57822 -10.57417 -10.56808 -10.56659
 Alpha  occ. eigenvalues --  -10.56024 -10.55742 -10.55532 -10.54980 -10.54922
 Alpha  occ. eigenvalues --  -10.54872 -10.54596 -10.54557 -10.54500 -10.53796
 Alpha  occ. eigenvalues --  -10.53666 -10.53564 -10.53198 -10.53127 -10.52638
 Alpha  occ. eigenvalues --  -10.52620  -8.41306  -6.33543  -6.33451  -6.33371
 Alpha  occ. eigenvalues --   -1.19126  -1.17864  -1.12933  -1.10244  -1.09857
 Alpha  occ. eigenvalues --   -1.09130  -1.06132  -0.97530  -0.95271  -0.94788
 Alpha  occ. eigenvalues --   -0.92184  -0.89846  -0.88575  -0.88106  -0.85024
 Alpha  occ. eigenvalues --   -0.84935  -0.83654  -0.83506  -0.83301  -0.80168
 Alpha  occ. eigenvalues --   -0.79178  -0.76343  -0.75649  -0.74679  -0.70936
 Alpha  occ. eigenvalues --   -0.70197  -0.69120  -0.68707  -0.68354  -0.68021
 Alpha  occ. eigenvalues --   -0.65832  -0.64727  -0.63935  -0.63428  -0.61613
 Alpha  occ. eigenvalues --   -0.60262  -0.59385  -0.58998  -0.58351  -0.56163
 Alpha  occ. eigenvalues --   -0.55452  -0.55172  -0.55069  -0.54119  -0.53703
 Alpha  occ. eigenvalues --   -0.53441  -0.53068  -0.52439  -0.51953  -0.51709
 Alpha  occ. eigenvalues --   -0.51125  -0.50983  -0.50610  -0.50128  -0.49830
 Alpha  occ. eigenvalues --   -0.49589  -0.49511  -0.48820  -0.48341  -0.47991
 Alpha  occ. eigenvalues --   -0.47791  -0.47174  -0.46986  -0.46977  -0.45919
 Alpha  occ. eigenvalues --   -0.45779  -0.45236  -0.43946  -0.43650  -0.43426
 Alpha  occ. eigenvalues --   -0.42776  -0.42524  -0.42223  -0.41962  -0.41889
 Alpha  occ. eigenvalues --   -0.41158  -0.40867  -0.40553  -0.39906  -0.39541
 Alpha  occ. eigenvalues --   -0.39361  -0.39224  -0.38816  -0.38386  -0.37901
 Alpha  occ. eigenvalues --   -0.37313  -0.36217  -0.35848  -0.35349  -0.35121
 Alpha  occ. eigenvalues --   -0.34372  -0.33096  -0.32060  -0.31695  -0.31497
 Alpha  occ. eigenvalues --   -0.29866  -0.28880  -0.28316  -0.27440  -0.25388
 Alpha virt. eigenvalues --   -0.01026   0.00656   0.03264   0.03780   0.09055
 Alpha virt. eigenvalues --    0.10160   0.10907   0.11810   0.12978   0.13517
 Alpha virt. eigenvalues --    0.13870   0.14265   0.15056   0.15485   0.15783

 Mulliken charges:
               1
     1  C   -0.303915
     2  C   -0.304176
     3  C   -0.309634
     4  C   -0.073280
     5  C    0.063017
     6  C   -0.305077
     7  H    0.166134
     8  H    0.160952
     9  H    0.159128
    10  H    0.146087
    11  H    0.156712
    12  H    0.212561
    13  H    0.141426
    14  H    0.179331
    15  H    0.149698
    16  H    0.150426
    17  N   -0.424227
    18  C    0.099665
    19  C    0.083947
    20  C   -0.227647
    21  H    0.204896
    22  C   -0.226708
    23  H    0.264072
    24  C    0.428062
    25  H    0.188094
    26  H    0.207156
    27  N   -0.528576
    28  C   -0.157889
    29  H    0.178355
    30  H    0.199200
    31  C   -0.146844
    32  H    0.169569
    33  H    0.195488
    34  N   -0.756344
    35  S    1.249546
    36  O   -0.646253
    37  O   -0.670243
    38  C    0.048691
    39  C   -0.176860
    40  C   -0.187290
    41  C   -0.169797
    42  C   -0.161869
    43  C   -0.198258
    44  H    0.204074
    45  H    0.139154
    46  H    0.156436
    47  H    0.161895
    48  H    0.157131
    49  O   -0.713431
    50  H    0.482148
    51  C    0.649926
    52  O   -0.522723
    53  O   -0.645949
    54  H    0.485657
    55  C   -0.368633
    56  H    0.201266
    57  H    0.164360
    58  C   -0.065917
    59  H    0.128001
    60  H    0.155600
    61  C   -0.657565
    62  H    0.220632
    63  H    0.187744
    64  H    0.207598
    65  C   -0.287493
    66  H    0.144067
    67  H    0.164671
    68  C   -0.480335
    69  H    0.158668
    70  H    0.158448
    71  H    0.150636
    72  C   -0.337223
    73  H    0.184252
    74  H    0.169994
    75  C   -0.335821
    76  H    0.182231
    77  H    0.173174
 Sum of Mulliken charges =  -0.00000

 Dipole moment (field-independent basis, Debye):
    X=              1.5411    Y=             -0.3560    Z=             -6.5548  Tot=              6.7430
 Quadrupole moment (field-independent basis, Debye-Ang):
   XX=           -198.4336   YY=           -222.8787   ZZ=           -222.1005
   XY=            -11.8888   XZ=             -0.8994   YZ=             12.4635

 Normal termination of Gaussian 16 at Fri Feb  8 00:00:50 2019.
