 Gaussian 16, Revision A.03,
 Gaussian 16:  ES64L-G16RevA.03 25-Dec-2016

 ------------------------------------------
 #p M062X/6-31G* em=gd3 force int=ultrafine
 ------------------------------------------

 -----
 Title
 -----
 Symbolic Z-matrix:
 Charge =  0 Multiplicity = 1

                         Standard orientation:
 ---------------------------------------------------------------------
 Center     Atomic      Atomic             Coordinates (Angstroms)
 Number     Number       Type             X           Y           Z
 ---------------------------------------------------------------------
      1          6           0       -4.782049    0.425271   -0.533145
      2          6           0       -4.974284   -0.861992   -1.340592
      3          6           0       -3.649620   -1.318786   -1.964333
      4          6           0       -2.633643   -1.532004   -0.848320
      5          6           0       -2.395724   -0.219164   -0.057867
      6          6           0       -3.716359    0.259771    0.555034
      7          1           0       -3.777081   -2.240324   -2.542324
      8          1           0       -5.356509   -1.655467   -0.685028
      9          1           0       -5.719108   -0.711624   -2.128349
     10          1           0       -4.476383    1.231360   -1.212862
     11          1           0       -5.731181    0.729240   -0.079825
     12          1           0       -3.011138   -2.291137   -0.156450
     13          1           0       -2.079399    0.538159   -0.786543
     14          1           0       -4.056664   -0.461551    1.305616
     15          1           0       -3.532128    1.215396    1.057397
     16          1           0       -3.303484   -0.535069   -2.651736
     17          7           0       -1.312813   -2.017179   -1.299900
     18          6           0       -0.628792   -1.334150   -2.256172
     19          6           0       -0.614627   -2.808788   -0.442267
     20          6           0        0.727374   -1.382584   -2.353434
     21          1           0       -1.223616   -0.716081   -2.917441
     22          6           0        0.742944   -2.891397   -0.463162
     23          1           0       -1.203781   -3.316184    0.314026
     24          6           0        1.482628   -2.073819   -1.358954
     25          1           0        1.216124   -0.812992   -3.132168
     26          1           0        1.230012   -3.481482    0.300065
     27          7           0        2.803385   -1.961894   -1.274254
     28          6           0        3.532466   -2.404044   -0.075420
     29          1           0        3.421480   -3.482232    0.068690
     30          1           0        3.129318   -1.856909    0.789567
     31          6           0        3.528218   -0.893002   -1.974795
     32          1           0        3.776281   -1.213928   -2.993960
     33          1           0        2.895266   -0.002086   -2.006096
     34          7           0       -1.275191   -0.318242    0.864093
     35         16           0       -1.326524   -1.169196    2.253443
     36          8           0       -2.525493   -2.013345    2.233970
     37          8           0       -0.032936   -1.829773    2.446713
     38          6           0       -0.606866    2.690078    0.040797
     39          6           0       -0.133831    2.208185   -1.189964
     40          6           0       -0.918063    2.300703   -2.338200
     41          6           0       -2.192003    2.867439   -2.291067
     42          6           0       -2.675334    3.343985   -1.075731
     43          6           0       -1.884851    3.255799    0.070520
     44          1           0        0.827494    1.707705   -1.216592
     45          1           0       -0.524153    1.932899   -3.283436
     46          1           0       -2.796965    2.942828   -3.190477
     47          1           0       -3.664510    3.789951   -1.017920
     48          1           0       -2.270321    3.642253    1.012039
     49          8           0        0.701320    1.547750    1.893370
     50          1           0       -0.293531   -0.068360    0.552194
     51          6           0        1.843824    0.824748    1.254304
     52          8           0        1.443714    0.216949    0.156145
     53          8           0        2.230907   -0.058563    2.291032
     54          1           0        1.538954   -0.743969    2.311588
     55          6           0        3.042259    1.802971    1.135019
     56          1           0        2.992835    2.518732    1.965678
     57          1           0        3.939419    1.200286    1.322549
     58          6           0        0.233020    2.737207    1.321086
     59          1           0       -0.399025    3.198387    2.091194
     60          1           0        1.065395    3.437447    1.156017
     61          6           0       -1.485937    0.039478    3.547077
     62          1           0       -0.619996    0.700458    3.451652
     63          1           0       -2.421592    0.580064    3.393751
     64          1           0       -1.494291   -0.492552    4.499804
     65          6           0        3.217021    2.537015   -0.191230
     66          1           0        3.234924    1.806177   -1.006047
     67          1           0        2.363592    3.192238   -0.402503
     68          6           0        4.499040    3.367813   -0.209153
     69          1           0        4.633789    3.888044   -1.162589
     70          1           0        4.485118    4.122754    0.585746
     71          1           0        5.378153    2.736343   -0.040787
     72          6           0        4.967996   -1.991561   -0.380712
     73          1           0        5.565036   -1.893391    0.527698
     74          1           0        5.443814   -2.731474   -1.033713
     75          6           0        4.774968   -0.662736   -1.115359
     76          1           0        4.556233    0.122023   -0.386772
     77          1           0        5.639602   -0.360364   -1.709913
 ---------------------------------------------------------------------

 SCF Done:  E(RM062X) =  -1991.35859558     A.U. after   14 cycles

 The electronic state is 1-A.
 Alpha  occ. eigenvalues --  -90.14161 -19.61767 -19.61745 -19.58700 -19.56701
 Alpha  occ. eigenvalues --  -19.51277 -14.85164 -14.80449 -14.75715 -10.63417
 Alpha  occ. eigenvalues --  -10.62785 -10.62261 -10.62180 -10.60718 -10.59331
 Alpha  occ. eigenvalues --  -10.58483 -10.57994 -10.57942 -10.57151 -10.56893
 Alpha  occ. eigenvalues --  -10.56685 -10.55653 -10.55599 -10.55119 -10.54855
 Alpha  occ. eigenvalues --  -10.54834 -10.54780 -10.54718 -10.54567 -10.54395
 Alpha  occ. eigenvalues --  -10.54317 -10.54310 -10.53077 -10.51529 -10.51474
 Alpha  occ. eigenvalues --  -10.49708  -8.45138  -6.37354  -6.37332  -6.37174
 Alpha  occ. eigenvalues --   -1.21985  -1.13598  -1.13502  -1.10241  -1.09347
 Alpha  occ. eigenvalues --   -1.05887  -1.01718  -0.99328  -0.95737  -0.94986
 Alpha  occ. eigenvalues --   -0.93489  -0.90295  -0.88753  -0.85898  -0.85795
 Alpha  occ. eigenvalues --   -0.84821  -0.84702  -0.84245  -0.83054  -0.82686
 Alpha  occ. eigenvalues --   -0.76663  -0.76290  -0.75833  -0.74376  -0.72780
 Alpha  occ. eigenvalues --   -0.71637  -0.68327  -0.68237  -0.67938  -0.67199
 Alpha  occ. eigenvalues --   -0.66751  -0.65227  -0.64868  -0.63525  -0.60563
 Alpha  occ. eigenvalues --   -0.60403  -0.59787  -0.58999  -0.57806  -0.57590
 Alpha  occ. eigenvalues --   -0.57170  -0.56435  -0.55776  -0.55171  -0.54193
 Alpha  occ. eigenvalues --   -0.53537  -0.52653  -0.52449  -0.52423  -0.51905
 Alpha  occ. eigenvalues --   -0.51547  -0.51032  -0.50787  -0.49872  -0.49568
 Alpha  occ. eigenvalues --   -0.49159  -0.48830  -0.48207  -0.48135  -0.48028
 Alpha  occ. eigenvalues --   -0.47665  -0.47459  -0.46907  -0.46441  -0.46102
 Alpha  occ. eigenvalues --   -0.44883  -0.44732  -0.44139  -0.43873  -0.43259
 Alpha  occ. eigenvalues --   -0.42503  -0.42125  -0.41418  -0.41336  -0.41127
 Alpha  occ. eigenvalues --   -0.40899  -0.40476  -0.39994  -0.39818  -0.39334
 Alpha  occ. eigenvalues --   -0.39256  -0.39064  -0.38446  -0.37946  -0.37591
 Alpha  occ. eigenvalues --   -0.37391  -0.36742  -0.36564  -0.35733  -0.34901
 Alpha  occ. eigenvalues --   -0.34386  -0.33954  -0.31676  -0.31082  -0.29768
 Alpha  occ. eigenvalues --   -0.28881  -0.28599  -0.27639  -0.24872  -0.24428
 Alpha virt. eigenvalues --   -0.01514   0.00412   0.03559   0.03762   0.10144
 Alpha virt. eigenvalues --    0.11005   0.11653   0.12185   0.13182   0.13519
 Alpha virt. eigenvalues --    0.14210   0.14616   0.14764   0.15237   0.15601

 Mulliken charges:
               1
     1  C   -0.306247
     2  C   -0.307087
     3  C   -0.309361
     4  C   -0.060050
     5  C    0.056871
     6  C   -0.311619
     7  H    0.173918
     8  H    0.162794
     9  H    0.165443
    10  H    0.151065
    11  H    0.163248
    12  H    0.208921
    13  H    0.172930
    14  H    0.192993
    15  H    0.163587
    16  H    0.154169
    17  N   -0.430637
    18  C    0.067640
    19  C    0.063663
    20  C   -0.202199
    21  H    0.206557
    22  C   -0.209034
    23  H    0.245424
    24  C    0.446308
    25  H    0.191861
    26  H    0.211565
    27  N   -0.526395
    28  C   -0.171491
    29  H    0.169785
    30  H    0.230516
    31  C   -0.154686
    32  H    0.166152
    33  H    0.204825
    34  N   -0.816194
    35  S    1.253634
    36  O   -0.612229
    37  O   -0.606885
    38  C    0.085572
    39  C   -0.183307
    40  C   -0.189609
    41  C   -0.171011
    42  C   -0.163703
    43  C   -0.212158
    44  H    0.210091
    45  H    0.140655
    46  H    0.154884
    47  H    0.158587
    48  H    0.152487
    49  O   -0.549912
    50  H    0.448912
    51  C    0.725359
    52  O   -0.722754
    53  O   -0.718049
    54  H    0.445040
    55  C   -0.338535
    56  H    0.149084
    57  H    0.150930
    58  C   -0.091934
    59  H    0.140271
    60  H    0.147618
    61  C   -0.663216
    62  H    0.273087
    63  H    0.196276
    64  H    0.217527
    65  C   -0.293316
    66  H    0.137311
    67  H    0.146254
    68  C   -0.473757
    69  H    0.148974
    70  H    0.154622
    71  H    0.144713
    72  C   -0.331852
    73  H    0.187303
    74  H    0.163061
    75  C   -0.343364
    76  H    0.196914
    77  H    0.171189
 Sum of Mulliken charges =  -0.00000

 Dipole moment (field-independent basis, Debye):
    X=             -2.4969    Y=             -1.8895    Z=             -6.3770  Tot=              7.1043
 Quadrupole moment (field-independent basis, Debye-Ang):
   XX=           -205.5902   YY=           -222.9436   ZZ=           -219.8311
   XY=            -12.3164   XZ=             -5.3646   YZ=             10.0159

 Normal termination of Gaussian 16 at Thu Feb  7 15:11:01 2019.
