 Gaussian 16, Revision A.03,
 Gaussian 16:  ES64L-G16RevA.03 25-Dec-2016

 ------------------------------------------
 #p M062X/6-31G* em=gd3 force int=ultrafine
 ------------------------------------------

 -----
 Title
 -----
 Symbolic Z-matrix:
 Charge =  0 Multiplicity = 1

                         Standard orientation:
 ---------------------------------------------------------------------
 Center     Atomic      Atomic             Coordinates (Angstroms)
 Number     Number       Type             X           Y           Z
 ---------------------------------------------------------------------
      1          6           0       -4.782848    0.432100   -0.527387
      2          6           0       -4.979088   -0.856833   -1.331200
      3          6           0       -3.656567   -1.317595   -1.956592
      4          6           0       -2.638577   -1.529835   -0.842251
      5          6           0       -2.397123   -0.215866   -0.054881
      6          6           0       -3.715613    0.267097    0.559369
      7          1           0       -3.786882   -2.240408   -2.531897
      8          1           0       -5.361337   -1.647940   -0.672802
      9          1           0       -5.725309   -0.707155   -2.117756
     10          1           0       -4.476695    1.235852   -1.209675
     11          1           0       -5.730573    0.739174   -0.073217
     12          1           0       -3.015563   -2.287115   -0.148084
     13          1           0       -2.080627    0.539470   -0.785571
     14          1           0       -4.056030   -0.451716    1.312291
     15          1           0       -3.528497    1.223557    1.059099
     16          1           0       -3.310478   -0.536323   -2.646794
     17          7           0       -1.319239   -2.017486   -1.295660
     18          6           0       -0.635487   -1.335104   -2.252684
     19          6           0       -0.620976   -2.810089   -0.439069
     20          6           0        0.720477   -1.385107   -2.351572
     21          1           0       -1.230362   -0.715953   -2.912910
     22          6           0        0.736448   -2.895133   -0.462231
     23          1           0       -1.209692   -3.316228    0.318420
     24          6           0        1.476150   -2.078440   -1.358837
     25          1           0        1.209097   -0.815626   -3.130476
     26          1           0        1.223705   -3.486187    0.300121
     27          7           0        2.797192   -1.968940   -1.276430
     28          6           0        3.527809   -2.415731   -0.080367
     29          1           0        3.414893   -3.494059    0.061157
     30          1           0        3.127692   -1.869950    0.786839
     31          6           0        3.522411   -0.898776   -1.974937
     32          1           0        3.768895   -1.217074   -2.995298
     33          1           0        2.890397   -0.007065   -2.002167
     34          7           0       -1.275094   -0.315311    0.865242
     35         16           0       -1.324764   -1.164095    2.256284
     36          8           0       -2.526071   -2.004905    2.240804
     37          8           0       -0.032354   -1.827675    2.446939
     38          6           0       -0.601416    2.687706    0.033742
     39          6           0       -0.128740    2.201375   -1.195509
     40          6           0       -0.912103    2.292726   -2.344486
     41          6           0       -2.184736    2.862610   -2.299697
     42          6           0       -2.667478    3.343931   -1.085982
     43          6           0       -1.877932    3.256924    0.061002
     44          1           0        0.831612    1.698603   -1.220102
     45          1           0       -0.518441    1.921435   -3.288546
     46          1           0       -2.788991    2.936906   -3.199676
     47          1           0       -3.655519    3.792649   -1.030018
     48          1           0       -2.263017    3.646951    1.001240
     49          8           0        0.705254    1.546754    1.888498
     50          1           0       -0.294262   -0.067336    0.551526
     51          6           0        1.850277    0.823562    1.250976
     52          8           0        1.452289    0.215708    0.152686
     53          8           0        2.235665   -0.059204    2.288848
     54          1           0        1.542493   -0.744181    2.309288
     55          6           0        3.046809    1.803353    1.134265
     56          1           0        2.994790    2.519379    1.964957
     57          1           0        3.944872    1.202302    1.323571
     58          6           0        0.237184    2.735643    1.314945
     59          1           0       -0.395843    3.196966    2.084240
     60          1           0        1.069372    3.436438    1.150305
     61          6           0       -1.477799    0.046649    3.548734
     62          1           0       -0.610002    0.704836    3.450889
     63          1           0       -2.412083    0.589896    3.396714
     64          1           0       -1.485931   -0.484421    4.502013
     65          6           0        3.222933    2.538347   -0.191345
     66          1           0        3.257867    1.806338   -1.005844
     67          1           0        2.362045    3.180054   -0.411201
     68          6           0        4.492802    3.388025   -0.198486
     69          1           0        4.630312    3.906737   -1.152333
     70          1           0        4.457668    4.145050    0.592938
     71          1           0        5.379409    2.769709   -0.018115
     72          6           0        4.963375   -2.004910   -0.387533
     73          1           0        5.562987   -1.911566    0.519671
     74          1           0        5.436007   -2.743039   -1.044880
     75          6           0        4.770349   -0.672822   -1.116125
     76          1           0        4.552339    0.108498   -0.383622
     77          1           0        5.634391   -0.368065   -1.710304
 ---------------------------------------------------------------------

 SCF Done:  E(RM062X) =  -1991.35852959     A.U. after   14 cycles

 The electronic state is 1-A.
 Alpha  occ. eigenvalues --  -90.14179 -19.61784 -19.61761 -19.58681 -19.56702
 Alpha  occ. eigenvalues --  -19.51262 -14.85171 -14.80448 -14.75758 -10.63420
 Alpha  occ. eigenvalues --  -10.62788 -10.62249 -10.62193 -10.60729 -10.59349
 Alpha  occ. eigenvalues --  -10.58460 -10.57999 -10.57948 -10.57160 -10.56889
 Alpha  occ. eigenvalues --  -10.56692 -10.55660 -10.55605 -10.55114 -10.54838
 Alpha  occ. eigenvalues --  -10.54838 -10.54790 -10.54722 -10.54572 -10.54398
 Alpha  occ. eigenvalues --  -10.54323 -10.54320 -10.53074 -10.51514 -10.51465
 Alpha  occ. eigenvalues --  -10.49698  -8.45156  -6.37373  -6.37350  -6.37193
 Alpha  occ. eigenvalues --   -1.22002  -1.13590  -1.13488  -1.10258  -1.09347
 Alpha  occ. eigenvalues --   -1.05868  -1.01739  -0.99326  -0.95745  -0.94987
 Alpha  occ. eigenvalues --   -0.93495  -0.90301  -0.88755  -0.85908  -0.85779
 Alpha  occ. eigenvalues --   -0.84820  -0.84709  -0.84237  -0.83054  -0.82697
 Alpha  occ. eigenvalues --   -0.76668  -0.76278  -0.75833  -0.74361  -0.72792
 Alpha  occ. eigenvalues --   -0.71647  -0.68328  -0.68231  -0.67937  -0.67206
 Alpha  occ. eigenvalues --   -0.66744  -0.65229  -0.64865  -0.63527  -0.60554
 Alpha  occ. eigenvalues --   -0.60404  -0.59780  -0.59020  -0.57806  -0.57593
 Alpha  occ. eigenvalues --   -0.57177  -0.56438  -0.55784  -0.55170  -0.54196
 Alpha  occ. eigenvalues --   -0.53547  -0.52655  -0.52456  -0.52434  -0.51901
 Alpha  occ. eigenvalues --   -0.51550  -0.51025  -0.50760  -0.49878  -0.49559
 Alpha  occ. eigenvalues --   -0.49158  -0.48835  -0.48207  -0.48137  -0.48016
 Alpha  occ. eigenvalues --   -0.47670  -0.47464  -0.46911  -0.46435  -0.46104
 Alpha  occ. eigenvalues --   -0.44881  -0.44735  -0.44142  -0.43869  -0.43262
 Alpha  occ. eigenvalues --   -0.42512  -0.42133  -0.41408  -0.41322  -0.41117
 Alpha  occ. eigenvalues --   -0.40901  -0.40480  -0.39993  -0.39812  -0.39318
 Alpha  occ. eigenvalues --   -0.39255  -0.39070  -0.38441  -0.37959  -0.37596
 Alpha  occ. eigenvalues --   -0.37391  -0.36739  -0.36564  -0.35742  -0.34905
 Alpha  occ. eigenvalues --   -0.34388  -0.33965  -0.31671  -0.31095  -0.29769
 Alpha  occ. eigenvalues --   -0.28878  -0.28600  -0.27646  -0.24853  -0.24417
 Alpha virt. eigenvalues --   -0.01522   0.00404   0.03554   0.03758   0.10140
 Alpha virt. eigenvalues --    0.10995   0.11652   0.12197   0.13176   0.13511
 Alpha virt. eigenvalues --    0.14213   0.14601   0.14757   0.15230   0.15600

 Mulliken charges:
               1
     1  C   -0.306267
     2  C   -0.307118
     3  C   -0.309293
     4  C   -0.060114
     5  C    0.056733
     6  C   -0.311559
     7  H    0.173963
     8  H    0.162817
     9  H    0.165491
    10  H    0.151071
    11  H    0.163311
    12  H    0.208976
    13  H    0.173016
    14  H    0.193035
    15  H    0.163618
    16  H    0.154226
    17  N   -0.430594
    18  C    0.067465
    19  C    0.063676
    20  C   -0.201950
    21  H    0.206514
    22  C   -0.209087
    23  H    0.245330
    24  C    0.446040
    25  H    0.191973
    26  H    0.211559
    27  N   -0.526203
    28  C   -0.171228
    29  H    0.169767
    30  H    0.230092
    31  C   -0.154752
    32  H    0.165903
    33  H    0.205319
    34  N   -0.815861
    35  S    1.253513
    36  O   -0.612069
    37  O   -0.606645
    38  C    0.085153
    39  C   -0.183803
    40  C   -0.189693
    41  C   -0.171113
    42  C   -0.163709
    43  C   -0.212140
    44  H    0.210755
    45  H    0.140607
    46  H    0.154894
    47  H    0.158587
    48  H    0.152485
    49  O   -0.550505
    50  H    0.448636
    51  C    0.725092
    52  O   -0.722185
    53  O   -0.718090
    54  H    0.444826
    55  C   -0.338535
    56  H    0.148902
    57  H    0.151049
    58  C   -0.091586
    59  H    0.140047
    60  H    0.147633
    61  C   -0.663282
    62  H    0.273393
    63  H    0.196303
    64  H    0.217571
    65  C   -0.293011
    66  H    0.136482
    67  H    0.146255
    68  C   -0.473522
    69  H    0.148955
    70  H    0.154618
    71  H    0.144856
    72  C   -0.331878
    73  H    0.187228
    74  H    0.163000
    75  C   -0.343278
    76  H    0.197207
    77  H    0.171127
 Sum of Mulliken charges =  -0.00000

 Dipole moment (field-independent basis, Debye):
    X=             -2.5357    Y=             -1.9106    Z=             -6.3631  Tot=              7.1112
 Quadrupole moment (field-independent basis, Debye-Ang):
   XX=           -205.6794   YY=           -222.8564   ZZ=           -219.8727
   XY=            -12.3522   XZ=             -5.3389   YZ=             10.0245

 Normal termination of Gaussian 16 at Thu Feb  7 14:57:56 2019.
