 Gaussian 16, Revision A.03,
 Gaussian 16:  ES64L-G16RevA.03 25-Dec-2016

 ------------------------------------------
 #p M062X/6-31G* em=gd3 force int=ultrafine
 ------------------------------------------

 -----
 Title
 -----
 Symbolic Z-matrix:
 Charge =  0 Multiplicity = 1

                         Standard orientation:
 ---------------------------------------------------------------------
 Center     Atomic      Atomic             Coordinates (Angstroms)
 Number     Number       Type             X           Y           Z
 ---------------------------------------------------------------------
      1          6           0       -4.781665    0.385233   -0.581356
      2          6           0       -4.949229   -0.902992   -1.392746
      3          6           0       -3.611294   -1.344606   -1.998699
      4          6           0       -2.608618   -1.548918   -0.869075
      5          6           0       -2.394117   -0.233710   -0.075349
      6          6           0       -3.728292    0.230140    0.520172
      7          1           0       -3.720847   -2.266127   -2.580454
      8          1           0       -5.331888   -1.701392   -0.743480
      9          1           0       -5.684651   -0.759468   -2.190560
     10          1           0       -4.476597    1.195625   -1.256141
     11          1           0       -5.739877    0.677822   -0.139760
     12          1           0       -2.988569   -2.311507   -0.182255
     13          1           0       -2.076267    0.526810   -0.800112
     14          1           0       -4.070633   -0.495832    1.265233
     15          1           0       -3.561502    1.187004    1.026137
     16          1           0       -3.264246   -0.555478   -2.679433
     17          7           0       -1.277991   -2.022815   -1.303242
     18          6           0       -0.592902   -1.347076   -2.263382
     19          6           0       -0.579851   -2.798927   -0.431209
     20          6           0        0.764276   -1.388281   -2.352250
     21          1           0       -1.187648   -0.742755   -2.937218
     22          6           0        0.778387   -2.869501   -0.440461
     23          1           0       -1.170769   -3.304266    0.325030
     24          6           0        1.517712   -2.058706   -1.342504
     25          1           0        1.253416   -0.827139   -3.136759
     26          1           0        1.264773   -3.445837    0.333675
     27          7           0        2.837368   -1.936129   -1.250560
     28          6           0        3.561155   -2.347360   -0.037247
     29          1           0        3.457213   -3.423157    0.128434
     30          1           0        3.147112   -1.786307    0.813768
     31          6           0        3.561069   -0.881776   -1.972433
     32          1           0        3.813991   -1.225013   -2.983092
     33          1           0        2.925489    0.006087   -2.030543
     34          7           0       -1.284621   -0.320762    0.860751
     35         16           0       -1.348780   -1.169131    2.250158
     36          8           0       -2.539934   -2.024110    2.219312
     37          8           0       -0.052646   -1.819333    2.463297
     38          6           0       -0.628697    2.698578    0.056836
     39          6           0       -0.154324    2.233441   -1.179807
     40          6           0       -0.944256    2.324459   -2.324061
     41          6           0       -2.225650    2.873589   -2.266521
     42          6           0       -2.710730    3.332523   -1.045227
     43          6           0       -1.914200    3.245776    0.097044
     44          1           0        0.814052    1.747716   -1.216112
     45          1           0       -0.549398    1.970078   -3.274117
     46          1           0       -2.835264    2.948561   -3.162838
     47          1           0       -3.705625    3.764147   -0.979862
     48          1           0       -2.300473    3.619431    1.043334
     49          8           0        0.683567    1.561159    1.909022
     50          1           0       -0.296439   -0.070254    0.555061
     51          6           0        1.815677    0.832279    1.264257
     52          8           0        1.405797    0.225651    0.168069
     53          8           0        2.206429   -0.052217    2.299116
     54          1           0        1.509193   -0.732077    2.330100
     55          6           0        3.022774    1.799134    1.133462
     56          1           0        2.988802    2.517718    1.962483
     57          1           0        3.912561    1.184354    1.316913
     58          6           0        0.219364    2.749956    1.331012
     59          1           0       -0.403847    3.221110    2.102161
     60          1           0        1.055935    3.442177    1.154744
     61          6           0       -1.533839    0.042131    3.538064
     62          1           0       -0.673299    0.711074    3.449347
     63          1           0       -2.472891    0.573239    3.372986
     64          1           0       -1.546947   -0.486210    4.492791
     65          6           0        3.199434    2.524554   -0.197473
     66          1           0        3.144280    1.791951   -1.010633
     67          1           0        2.380942    3.229213   -0.382461
     68          6           0        4.529226    3.275524   -0.260645
     69          1           0        4.659065    3.793632   -1.215819
     70          1           0        4.593216    4.023312    0.537747
     71          1           0        5.373770    2.588064   -0.131418
     72          6           0        4.996583   -1.932853   -0.341419
     73          1           0        5.584254   -1.805311    0.569504
     74          1           0        5.483926   -2.687188   -0.968763
     75          6           0        4.804111   -0.625821   -1.114718
     76          1           0        4.583740    0.180145   -0.410491
     77          1           0        5.670811   -0.339852   -1.714422
 ---------------------------------------------------------------------

 SCF Done:  E(RM062X) =  -1991.35883095     A.U. after   14 cycles

 The electronic state is 1-A.
 Alpha  occ. eigenvalues --  -90.14096 -19.61713 -19.61692 -19.58752 -19.56726
 Alpha  occ. eigenvalues --  -19.51358 -14.85143 -14.80454 -14.75572 -10.63403
 Alpha  occ. eigenvalues --  -10.62775 -10.62306 -10.62124 -10.60682 -10.59263
 Alpha  occ. eigenvalues --  -10.58599 -10.57964 -10.57904 -10.57108 -10.56881
 Alpha  occ. eigenvalues --  -10.56666 -10.55627 -10.55579 -10.55147 -10.54939
 Alpha  occ. eigenvalues --  -10.54808 -10.54742 -10.54689 -10.54541 -10.54369
 Alpha  occ. eigenvalues --  -10.54292 -10.54253 -10.53103 -10.51625 -10.51537
 Alpha  occ. eigenvalues --  -10.49761  -8.45074  -6.37290  -6.37269  -6.37112
 Alpha  occ. eigenvalues --   -1.21926  -1.13635  -1.13496  -1.10179  -1.09352
 Alpha  occ. eigenvalues --   -1.05910  -1.01642  -0.99382  -0.95705  -0.94966
 Alpha  occ. eigenvalues --   -0.93469  -0.90267  -0.88751  -0.85881  -0.85816
 Alpha  occ. eigenvalues --   -0.84808  -0.84673  -0.84285  -0.83039  -0.82640
 Alpha  occ. eigenvalues --   -0.76651  -0.76339  -0.75833  -0.74398  -0.72736
 Alpha  occ. eigenvalues --   -0.71597  -0.68329  -0.68266  -0.67930  -0.67168
 Alpha  occ. eigenvalues --   -0.66762  -0.65209  -0.64869  -0.63520  -0.60577
 Alpha  occ. eigenvalues --   -0.60404  -0.59796  -0.58905  -0.57818  -0.57567
 Alpha  occ. eigenvalues --   -0.57146  -0.56427  -0.55738  -0.55163  -0.54176
 Alpha  occ. eigenvalues --   -0.53493  -0.52641  -0.52413  -0.52379  -0.51894
 Alpha  occ. eigenvalues --   -0.51535  -0.51061  -0.50892  -0.49853  -0.49592
 Alpha  occ. eigenvalues --   -0.49158  -0.48812  -0.48202  -0.48112  -0.48065
 Alpha  occ. eigenvalues --   -0.47637  -0.47439  -0.46897  -0.46462  -0.46096
 Alpha  occ. eigenvalues --   -0.44904  -0.44698  -0.44109  -0.43882  -0.43252
 Alpha  occ. eigenvalues --   -0.42468  -0.42095  -0.41485  -0.41396  -0.41162
 Alpha  occ. eigenvalues --   -0.40883  -0.40456  -0.40006  -0.39838  -0.39420
 Alpha  occ. eigenvalues --   -0.39255  -0.39050  -0.38456  -0.37904  -0.37582
 Alpha  occ. eigenvalues --   -0.37372  -0.36727  -0.36574  -0.35695  -0.34884
 Alpha  occ. eigenvalues --   -0.34368  -0.33911  -0.31709  -0.31021  -0.29746
 Alpha  occ. eigenvalues --   -0.28888  -0.28584  -0.27606  -0.24959  -0.24497
 Alpha virt. eigenvalues --   -0.01472   0.00447   0.03583   0.03792   0.10166
 Alpha virt. eigenvalues --    0.11042   0.11631   0.12131   0.13207   0.13548
 Alpha virt. eigenvalues --    0.14197   0.14663   0.14784   0.15286   0.15600

 Mulliken charges:
               1
     1  C   -0.306147
     2  C   -0.306965
     3  C   -0.309823
     4  C   -0.059551
     5  C    0.057207
     6  C   -0.311872
     7  H    0.173775
     8  H    0.162775
     9  H    0.165253
    10  H    0.150900
    11  H    0.163036
    12  H    0.208588
    13  H    0.172662
    14  H    0.193211
    15  H    0.163484
    16  H    0.153925
    17  N   -0.431338
    18  C    0.068702
    19  C    0.063842
    20  C   -0.203682
    21  H    0.206829
    22  C   -0.208930
    23  H    0.245756
    24  C    0.448091
    25  H    0.191321
    26  H    0.211702
    27  N   -0.527563
    28  C   -0.173475
    29  H    0.169841
    30  H    0.233439
    31  C   -0.154233
    32  H    0.167361
    33  H    0.202296
    34  N   -0.816940
    35  S    1.253917
    36  O   -0.612188
    37  O   -0.608423
    38  C    0.088296
    39  C   -0.180241
    40  C   -0.189227
    41  C   -0.170716
    42  C   -0.163686
    43  C   -0.212172
    44  H    0.206183
    45  H    0.140941
    46  H    0.154748
    47  H    0.158485
    48  H    0.152442
    49  O   -0.548486
    50  H    0.449411
    51  C    0.727002
    52  O   -0.724010
    53  O   -0.718166
    54  H    0.445573
    55  C   -0.338207
    56  H    0.149793
    57  H    0.149965
    58  C   -0.093519
    59  H    0.141008
    60  H    0.147124
    61  C   -0.662924
    62  H    0.271847
    63  H    0.196267
    64  H    0.217381
    65  C   -0.295091
    66  H    0.140153
    67  H    0.146754
    68  C   -0.474879
    69  H    0.149331
    70  H    0.155679
    71  H    0.143877
    72  C   -0.331786
    73  H    0.187535
    74  H    0.163361
    75  C   -0.343762
    76  H    0.195428
    77  H    0.171504
 Sum of Mulliken charges =  -0.00000

 Dipole moment (field-independent basis, Debye):
    X=             -2.2989    Y=             -1.8425    Z=             -6.4471  Tot=              7.0884
 Quadrupole moment (field-independent basis, Debye-Ang):
   XX=           -205.1849   YY=           -223.2262   ZZ=           -219.7533
   XY=            -12.1477   XZ=             -5.3712   YZ=             10.0389

 Normal termination of Gaussian 16 at Thu Feb  7 16:13:17 2019.
