 Gaussian 16, Revision A.03,
 Gaussian 16:  ES64L-G16RevA.03 25-Dec-2016

 ------------------------------------------
 #p M062X/6-31G* em=gd3 force int=ultrafine
 ------------------------------------------

 -----
 Title
 -----
 Symbolic Z-matrix:
 Charge =  0 Multiplicity = 1

                         Standard orientation:
 ---------------------------------------------------------------------
 Center     Atomic      Atomic             Coordinates (Angstroms)
 Number     Number       Type             X           Y           Z
 ---------------------------------------------------------------------
      1          6           0       -4.859902    0.525916   -0.543268
      2          6           0       -5.032807   -0.759843   -1.356997
      3          6           0       -3.691834   -1.219862   -1.941446
      4          6           0       -2.701987   -1.445234   -0.802806
      5          6           0       -2.499895   -0.144212    0.011217
      6          6           0       -3.835686    0.343939    0.580084
      7          1           0       -3.805168   -2.136615   -2.529754
      8          1           0       -5.438645   -1.551367   -0.713411
      9          1           0       -5.751990   -0.606570   -2.167608
     10          1           0       -4.518877    1.329916   -1.209806
     11          1           0       -5.821619    0.840236   -0.125330
     12          1           0       -3.091517   -2.218627   -0.132779
     13          1           0       -2.144505    0.617812   -0.694536
     14          1           0       -4.204472   -0.376345    1.318338
     15          1           0       -3.655565    1.295249    1.093625
     16          1           0       -3.323898   -0.432378   -2.612821
     17          7           0       -1.371901   -1.920681   -1.238952
     18          6           0       -0.685537   -1.261285   -2.210166
     19          6           0       -0.679187   -2.728994   -0.393714
     20          6           0        0.665108   -1.359265   -2.342915
     21          1           0       -1.272664   -0.625103   -2.859913
     22          6           0        0.673125   -2.865489   -0.453549
     23          1           0       -1.265951   -3.220385    0.374617
     24          6           0        1.424109   -2.093466   -1.382550
     25          1           0        1.153517   -0.806474   -3.134335
     26          1           0        1.155598   -3.478740    0.294245
     27          7           0        2.751587   -2.068887   -1.357068
     28          6           0        3.487775   -2.581561   -0.190398
     29          1           0        3.342849   -3.660563   -0.085269
     30          1           0        3.119192   -2.053469    0.700366
     31          6           0        3.524923   -1.028452   -2.057025
     32          1           0        3.783342   -1.372135   -3.066438
     33          1           0        2.933977   -0.111038   -2.098987
     34          7           0       -1.416925   -0.267329    0.970529
     35         16           0       -1.436814   -1.147392    2.343259
     36          8           0       -2.669553   -1.937919    2.330961
     37          8           0       -0.163464   -1.855397    2.477229
     38          6           0       -0.530127    2.678764   -0.067035
     39          6           0       -0.038372    2.072275   -1.230940
     40          6           0       -0.760960    2.153127   -2.420955
     41          6           0       -1.988629    2.813658   -2.469176
     42          6           0       -2.490318    3.404915   -1.311157
     43          6           0       -1.761184    3.338211   -0.124238
     44          1           0        0.886487    1.499055   -1.160680
     45          1           0       -0.357300    1.698176   -3.323485
     46          1           0       -2.546222    2.873512   -3.399742
     47          1           0       -3.446584    3.920287   -1.332125
     48          1           0       -2.158035    3.804151    0.775590
     49          8           0        0.677472    1.367245    1.653552
     50          1           0       -0.533591    0.258819    0.856049
     51          6           0        2.047909    0.738225    1.178537
     52          8           0        1.901686    0.182014    0.026984
     53          8           0        2.265006   -0.148264    2.255618
     54          1           0        1.571283   -0.827539    2.172563
     55          6           0        3.128030    1.830230    1.306793
     56          1           0        2.894177    2.497289    2.146129
     57          1           0        4.052158    1.308135    1.587152
     58          6           0        0.245703    2.634212    1.245250
     59          1           0       -0.419510    3.019788    2.033344
     60          1           0        1.086266    3.340840    1.189644
     61          6           0       -1.475657    0.054821    3.653571
     62          1           0       -0.589876    0.680532    3.505281
     63          1           0       -2.397978    0.631199    3.567597
     64          1           0       -1.432120   -0.480362    4.603449
     65          6           0        3.379260    2.621499    0.025281
     66          1           0        3.687618    1.925048   -0.762743
     67          1           0        2.452799    3.078345   -0.342512
     68          6           0        4.437990    3.704178    0.220552
     69          1           0        4.638785    4.248903   -0.707221
     70          1           0        4.117072    4.432543    0.973789
     71          1           0        5.381939    3.269696    0.568213
     72          6           0        4.930881   -2.197026   -0.494208
     73          1           0        5.537306   -2.150917    0.412231
     74          1           0        5.382904   -2.921529   -1.180989
     75          6           0        4.757265   -0.836767   -1.170820
     76          1           0        4.506754   -0.090156   -0.411961
     77          1           0        5.632596   -0.509163   -1.735791
 ---------------------------------------------------------------------

 SCF Done:  E(RM062X) =  -1991.35563669     A.U. after   15 cycles

 The electronic state is 1-A.
 Alpha  occ. eigenvalues --  -90.14746 -19.62378 -19.62086 -19.58595 -19.57044
 Alpha  occ. eigenvalues --  -19.50653 -14.85179 -14.80032 -14.76509 -10.63151
 Alpha  occ. eigenvalues --  -10.62606 -10.62229 -10.62122 -10.61081 -10.59874
 Alpha  occ. eigenvalues --  -10.57760 -10.57752 -10.57621 -10.57040 -10.56966
 Alpha  occ. eigenvalues --  -10.56887 -10.56363 -10.55873 -10.55125 -10.55086
 Alpha  occ. eigenvalues --  -10.55044 -10.54887 -10.54689 -10.54684 -10.54648
 Alpha  occ. eigenvalues --  -10.54464 -10.54044 -10.53126 -10.51101 -10.50992
 Alpha  occ. eigenvalues --  -10.49572  -8.45717  -6.37945  -6.37894  -6.37766
 Alpha  occ. eigenvalues --   -1.22534  -1.13453  -1.12840  -1.10739  -1.08869
 Alpha  occ. eigenvalues --   -1.05967  -1.02438  -1.00024  -0.95829  -0.95223
 Alpha  occ. eigenvalues --   -0.93468  -0.90115  -0.88565  -0.86534  -0.85366
 Alpha  occ. eigenvalues --   -0.84931  -0.84852  -0.83703  -0.83315  -0.83061
 Alpha  occ. eigenvalues --   -0.76563  -0.75988  -0.75548  -0.74239  -0.73261
 Alpha  occ. eigenvalues --   -0.71756  -0.68233  -0.68141  -0.67748  -0.67488
 Alpha  occ. eigenvalues --   -0.66431  -0.65489  -0.64879  -0.63334  -0.60518
 Alpha  occ. eigenvalues --   -0.60383  -0.59952  -0.59416  -0.57942  -0.57688
 Alpha  occ. eigenvalues --   -0.57149  -0.56389  -0.55665  -0.55092  -0.54385
 Alpha  occ. eigenvalues --   -0.53558  -0.53076  -0.52673  -0.52469  -0.52175
 Alpha  occ. eigenvalues --   -0.51684  -0.50805  -0.50132  -0.49919  -0.49357
 Alpha  occ. eigenvalues --   -0.49243  -0.48938  -0.48492  -0.48187  -0.48015
 Alpha  occ. eigenvalues --   -0.47722  -0.47636  -0.47163  -0.46173  -0.45810
 Alpha  occ. eigenvalues --   -0.45296  -0.45171  -0.44390  -0.44021  -0.43190
 Alpha  occ. eigenvalues --   -0.42469  -0.42330  -0.41183  -0.40869  -0.40754
 Alpha  occ. eigenvalues --   -0.40673  -0.40396  -0.40128  -0.39836  -0.39410
 Alpha  occ. eigenvalues --   -0.39145  -0.38893  -0.38694  -0.38318  -0.37793
 Alpha  occ. eigenvalues --   -0.37421  -0.36508  -0.36440  -0.36057  -0.35025
 Alpha  occ. eigenvalues --   -0.34547  -0.34288  -0.31787  -0.31345  -0.30024
 Alpha  occ. eigenvalues --   -0.29289  -0.28826  -0.27762  -0.24296  -0.23986
 Alpha virt. eigenvalues --   -0.01225   0.00584   0.03204   0.03561   0.10154
 Alpha virt. eigenvalues --    0.10590   0.11338   0.12566   0.13169   0.13319
 Alpha virt. eigenvalues --    0.14144   0.14430   0.15056   0.15525   0.15543

 Mulliken charges:
               1
     1  C   -0.306471
     2  C   -0.307795
     3  C   -0.311125
     4  C   -0.060347
     5  C    0.064891
     6  C   -0.306849
     7  H    0.175507
     8  H    0.163268
     9  H    0.166773
    10  H    0.151211
    11  H    0.164943
    12  H    0.207237
    13  H    0.174673
    14  H    0.192694
    15  H    0.160673
    16  H    0.156352
    17  N   -0.437390
    18  C    0.079338
    19  C    0.080057
    20  C   -0.209487
    21  H    0.202866
    22  C   -0.220820
    23  H    0.243448
    24  C    0.449353
    25  H    0.192014
    26  H    0.209705
    27  N   -0.518289
    28  C   -0.165397
    29  H    0.166976
    30  H    0.221208
    31  C   -0.145473
    32  H    0.160322
    33  H    0.205436
    34  N   -0.810522
    35  S    1.238184
    36  O   -0.603396
    37  O   -0.591429
    38  C    0.049769
    39  C   -0.196556
    40  C   -0.192554
    41  C   -0.172374
    42  C   -0.165350
    43  C   -0.205102
    44  H    0.234209
    45  H    0.141662
    46  H    0.156257
    47  H    0.159853
    48  H    0.154259
    49  O   -0.598436
    50  H    0.450079
    51  C    0.715570
    52  O   -0.689832
    53  O   -0.702802
    54  H    0.432320
    55  C   -0.340275
    56  H    0.143668
    57  H    0.150835
    58  C   -0.080640
    59  H    0.131060
    60  H    0.156415
    61  C   -0.666265
    62  H    0.267843
    63  H    0.200315
    64  H    0.222906
    65  C   -0.285169
    66  H    0.142641
    67  H    0.140349
    68  C   -0.474906
    69  H    0.148222
    70  H    0.149244
    71  H    0.148516
    72  C   -0.334040
    73  H    0.184399
    74  H    0.159941
    75  C   -0.338289
    76  H    0.205080
    77  H    0.164844
 Sum of Mulliken charges =  -0.00000

 Dipole moment (field-independent basis, Debye):
    X=             -3.5844    Y=             -1.5457    Z=             -5.7079  Tot=              6.9150
 Quadrupole moment (field-independent basis, Debye-Ang):
   XX=           -208.6173   YY=           -222.4451   ZZ=           -218.2733
   XY=            -13.4049   XZ=             -4.1167   YZ=             10.7838

 Normal termination of Gaussian 16 at Thu Feb  7 10:01:40 2019.
