 Gaussian 16, Revision A.03,
 Gaussian 16:  ES64L-G16RevA.03 25-Dec-2016

 ------------------------------------------
 #p M062X/6-31G* em=gd3 force int=ultrafine
 ------------------------------------------

 -----
 Title
 -----
 Symbolic Z-matrix:
 Charge =  0 Multiplicity = 1

                         Standard orientation:
 ---------------------------------------------------------------------
 Center     Atomic      Atomic             Coordinates (Angstroms)
 Number     Number       Type             X           Y           Z
 ---------------------------------------------------------------------
      1          6           0       -4.870143    0.136740   -0.439818
      2          6           0       -4.937766   -1.155026   -1.260038
      3          6           0       -3.564048   -1.502009   -1.846742
      4          6           0       -2.557842   -1.629719   -0.707334
      5          6           0       -2.437602   -0.300441    0.092108
      6          6           0       -3.818453    0.044682    0.670115
      7          1           0       -3.604555   -2.430101   -2.428524
      8          1           0       -5.275875   -1.980359   -0.619810
      9          1           0       -5.668171   -1.059005   -2.070236
     10          1           0       -4.606448    0.968939   -1.107755
     11          1           0       -5.854494    0.364577   -0.017101
     12          1           0       -2.880597   -2.420238   -0.024136
     13          1           0       -2.213023    0.470709   -0.660108
     14          1           0       -4.103608   -0.716240    1.407728
     15          1           0       -3.731345    1.004520    1.193211
     16          1           0       -3.269956   -0.690715   -2.526802
     17          7           0       -1.198159   -2.017418   -1.150097
     18          6           0       -0.578840   -1.347648   -2.149388
     19          6           0       -0.449490   -2.765479   -0.305549
     20          6           0        0.774965   -1.385513   -2.322329
     21          1           0       -1.216552   -0.755579   -2.793065
     22          6           0        0.909467   -2.847820   -0.411431
     23          1           0       -0.989620   -3.252007    0.499576
     24          6           0        1.589971   -2.074562   -1.381760
     25          1           0        1.211591   -0.832280   -3.143365
     26          1           0        1.440082   -3.416737    0.339041
     27          7           0        2.926954   -1.983769   -1.394511
     28          6           0        3.715650   -2.465251   -0.253209
     29          1           0        3.657962   -3.554825   -0.174378
     30          1           0        3.319772   -2.018345    0.669526
     31          6           0        3.627791   -0.915751   -2.123672
     32          1           0        3.889565   -1.256276   -3.132913
     33          1           0        2.988097   -0.031547   -2.187662
     34          7           0       -1.309589   -0.270643    0.998994
     35         16           0       -1.275471   -1.192802    2.281087
     36          8           0       -2.286661   -2.273361    2.275806
     37          8           0        0.119047   -1.658899    2.513289
     38          6           0       -1.034457    2.858576   -0.160988
     39          6           0       -0.352720    2.171043   -1.171821
     40          6           0       -0.919751    2.059879   -2.439367
     41          6           0       -2.182647    2.591578   -2.703632
     42          6           0       -2.876685    3.246588   -1.689056
     43          6           0       -2.299066    3.380485   -0.428431
     44          1           0        0.597764    1.690283   -0.945825
     45          1           0       -0.373378    1.549116   -3.229199
     46          1           0       -2.624003    2.496516   -3.691353
     47          1           0       -3.866688    3.652594   -1.875027
     48          1           0       -2.840133    3.888303    0.366877
     49          8           0        0.251189    1.868045    1.644411
     50          1           0       -0.289177    1.074694    1.347374
     51          6           0        2.439535    0.636512    1.196927
     52          8           0        2.103455    0.203459    0.108259
     53          8           0        2.238415   -0.005710    2.336993
     54          1           0        1.525755   -0.694138    2.231115
     55          6           0        3.191770    1.933469    1.382616
     56          1           0        2.692584    2.472394    2.193760
     57          1           0        4.205127    1.696266    1.736735
     58          6           0       -0.419788    3.016542    1.213556
     59          1           0       -1.206613    3.322636    1.922696
     60          1           0        0.319638    3.830864    1.192940
     61          6           0       -1.620596   -0.135927    3.684616
     62          1           0       -0.898397    0.683374    3.648739
     63          1           0       -2.639310    0.243718    3.584679
     64          1           0       -1.509995   -0.716089    4.601629
     65          6           0        3.237736    2.770964    0.110621
     66          1           0        3.662356    2.175163   -0.706446
     67          1           0        2.210946    3.006058   -0.191810
     68          6           0        4.036974    4.057929    0.290796
     69          1           0        4.073377    4.636542   -0.636799
     70          1           0        3.590738    4.691792    1.064286
     71          1           0        5.067718    3.842791    0.593097
     72          6           0        5.125772   -1.966179   -0.556070
     73          1           0        5.720949   -1.855322    0.352569
     74          1           0        5.639614   -2.666796   -1.222054
     75          6           0        4.867636   -0.636701   -1.269179
     76          1           0        4.618648    0.133348   -0.533734
     77          1           0        5.714943   -0.291012   -1.864872
 ---------------------------------------------------------------------

 SCF Done:  E(RM062X) =  -1991.38781215     A.U. after   15 cycles

 The electronic state is 1-A.
 Alpha  occ. eigenvalues --  -90.10326 -19.63405 -19.60103 -19.59124 -19.58518
 Alpha  occ. eigenvalues --  -19.58333 -14.84790 -14.80479 -14.69352 -10.65528
 Alpha  occ. eigenvalues --  -10.63217 -10.62408 -10.61504 -10.59122 -10.59091
 Alpha  occ. eigenvalues --  -10.59016 -10.57822 -10.57408 -10.56793 -10.56669
 Alpha  occ. eigenvalues --  -10.56006 -10.55732 -10.55550 -10.54991 -10.54930
 Alpha  occ. eigenvalues --  -10.54880 -10.54605 -10.54568 -10.54504 -10.53824
 Alpha  occ. eigenvalues --  -10.53612 -10.53571 -10.53243 -10.53192 -10.52686
 Alpha  occ. eigenvalues --  -10.52621  -8.41288  -6.33525  -6.33433  -6.33353
 Alpha  occ. eigenvalues --   -1.19141  -1.17840  -1.12928  -1.10187  -1.09872
 Alpha  occ. eigenvalues --   -1.09118  -1.06111  -0.97524  -0.95284  -0.94774
 Alpha  occ. eigenvalues --   -0.92183  -0.89840  -0.88569  -0.88150  -0.85034
 Alpha  occ. eigenvalues --   -0.84920  -0.83661  -0.83509  -0.83300  -0.80146
 Alpha  occ. eigenvalues --   -0.79218  -0.76335  -0.75640  -0.74674  -0.70935
 Alpha  occ. eigenvalues --   -0.70206  -0.69156  -0.68697  -0.68348  -0.68035
 Alpha  occ. eigenvalues --   -0.65861  -0.64732  -0.63928  -0.63432  -0.61605
 Alpha  occ. eigenvalues --   -0.60258  -0.59379  -0.59013  -0.58348  -0.56160
 Alpha  occ. eigenvalues --   -0.55465  -0.55187  -0.55084  -0.54157  -0.53729
 Alpha  occ. eigenvalues --   -0.53442  -0.53063  -0.52477  -0.51940  -0.51697
 Alpha  occ. eigenvalues --   -0.51111  -0.50976  -0.50611  -0.50098  -0.49832
 Alpha  occ. eigenvalues --   -0.49585  -0.49529  -0.48808  -0.48334  -0.47988
 Alpha  occ. eigenvalues --   -0.47795  -0.47181  -0.47012  -0.46972  -0.45904
 Alpha  occ. eigenvalues --   -0.45733  -0.45230  -0.43943  -0.43653  -0.43432
 Alpha  occ. eigenvalues --   -0.42791  -0.42586  -0.42207  -0.41988  -0.41880
 Alpha  occ. eigenvalues --   -0.41163  -0.40881  -0.40543  -0.39900  -0.39557
 Alpha  occ. eigenvalues --   -0.39359  -0.39245  -0.38860  -0.38392  -0.37938
 Alpha  occ. eigenvalues --   -0.37312  -0.36216  -0.35829  -0.35345  -0.35131
 Alpha  occ. eigenvalues --   -0.34352  -0.33075  -0.32043  -0.31667  -0.31489
 Alpha  occ. eigenvalues --   -0.29882  -0.28869  -0.28317  -0.27412  -0.25373
 Alpha virt. eigenvalues --   -0.01030   0.00663   0.03231   0.03768   0.09017
 Alpha virt. eigenvalues --    0.10165   0.10907   0.11815   0.12964   0.13539
 Alpha virt. eigenvalues --    0.13868   0.14282   0.15019   0.15481   0.15805

 Mulliken charges:
               1
     1  C   -0.303926
     2  C   -0.304168
     3  C   -0.309621
     4  C   -0.073158
     5  C    0.063791
     6  C   -0.305014
     7  H    0.166319
     8  H    0.160994
     9  H    0.159137
    10  H    0.145866
    11  H    0.156760
    12  H    0.212150
    13  H    0.141300
    14  H    0.179331
    15  H    0.149977
    16  H    0.150199
    17  N   -0.424078
    18  C    0.099217
    19  C    0.084284
    20  C   -0.227409
    21  H    0.204769
    22  C   -0.226495
    23  H    0.263665
    24  C    0.427834
    25  H    0.187975
    26  H    0.207327
    27  N   -0.528239
    28  C   -0.158098
    29  H    0.178333
    30  H    0.198962
    31  C   -0.146629
    32  H    0.169583
    33  H    0.195106
    34  N   -0.757918
    35  S    1.249504
    36  O   -0.645358
    37  O   -0.670010
    38  C    0.048907
    39  C   -0.176567
    40  C   -0.187585
    41  C   -0.169681
    42  C   -0.161646
    43  C   -0.198599
    44  H    0.204589
    45  H    0.139139
    46  H    0.156513
    47  H    0.161968
    48  H    0.157469
    49  O   -0.714704
    50  H    0.482957
    51  C    0.652513
    52  O   -0.522274
    53  O   -0.646391
    54  H    0.485437
    55  C   -0.369686
    56  H    0.201821
    57  H    0.164744
    58  C   -0.064887
    59  H    0.127707
    60  H    0.153268
    61  C   -0.658650
    62  H    0.222238
    63  H    0.187391
    64  H    0.207259
    65  C   -0.288077
    66  H    0.144581
    67  H    0.163684
    68  C   -0.480326
    69  H    0.158861
    70  H    0.158413
    71  H    0.150996
    72  C   -0.337098
    73  H    0.184359
    74  H    0.169950
    75  C   -0.335872
    76  H    0.181920
    77  H    0.173096
 Sum of Mulliken charges =  -0.00000

 Dipole moment (field-independent basis, Debye):
    X=              1.5386    Y=             -0.3091    Z=             -6.5911  Tot=              6.7753
 Quadrupole moment (field-independent basis, Debye-Ang):
   XX=           -198.7205   YY=           -222.6798   ZZ=           -222.2884
   XY=            -11.7851   XZ=             -0.6239   YZ=             12.5365

 Normal termination of Gaussian 16 at Thu Feb  7 23:34:35 2019.
