 Gaussian 16, Revision A.03,
 Gaussian 16:  ES64L-G16RevA.03 25-Dec-2016

 ------------------------------------------
 #p M062X/6-31G* em=gd3 force int=ultrafine
 ------------------------------------------

 -----
 Title
 -----
 Symbolic Z-matrix:
 Charge =  0 Multiplicity = 1

                         Standard orientation:
 ---------------------------------------------------------------------
 Center     Atomic      Atomic             Coordinates (Angstroms)
 Number     Number       Type             X           Y           Z
 ---------------------------------------------------------------------
      1          6           0       -4.844638    0.392542   -0.507387
      2          6           0       -4.980727   -0.878990   -1.350085
      3          6           0       -3.625210   -1.286993   -1.939618
      4          6           0       -2.634560   -1.504787   -0.800618
      5          6           0       -2.456312   -0.216690    0.045694
      6          6           0       -3.815115    0.216722    0.613546
      7          1           0       -3.711469   -2.194096   -2.548035
      8          1           0       -5.365638   -1.696275   -0.726066
      9          1           0       -5.701623   -0.728825   -2.160301
     10          1           0       -4.526621    1.219327   -1.157738
     11          1           0       -5.816887    0.670561   -0.087165
     12          1           0       -3.001137   -2.303121   -0.147754
     13          1           0       -2.142072    0.566272   -0.659979
     14          1           0       -4.163075   -0.529380    1.337133
     15          1           0       -3.668658    1.163676    1.146586
     16          1           0       -3.281323   -0.473706   -2.593131
     17          7           0       -1.289152   -1.937498   -1.246755
     18          6           0       -0.629207   -1.252285   -2.211658
     19          6           0       -0.575648   -2.734446   -0.414274
     20          6           0        0.725382   -1.320807   -2.358664
     21          1           0       -1.234650   -0.617492   -2.845636
     22          6           0        0.781992   -2.847312   -0.492610
     23          1           0       -1.144615   -3.242329    0.356853
     24          6           0        1.504359   -2.058819   -1.423110
     25          1           0        1.192962   -0.746229   -3.147421
     26          1           0        1.281595   -3.455324    0.248481
     27          7           0        2.840372   -1.999555   -1.404901
     28          6           0        3.591598   -2.509835   -0.249201
     29          1           0        3.487018   -3.594914   -0.165963
     30          1           0        3.203511   -2.034271    0.662557
     31          6           0        3.580979   -0.926024   -2.089784
     32          1           0        3.850298   -1.244163   -3.103849
     33          1           0        2.966095   -0.023573   -2.133144
     34          7           0       -1.347326   -0.327519    0.972005
     35         16           0       -1.389101   -1.226827    2.301589
     36          8           0       -2.545847   -2.137429    2.282532
     37          8           0       -0.060333   -1.849896    2.485588
     38          6           0       -0.727503    2.767730   -0.064715
     39          6           0       -0.154490    2.123674   -1.170642
     40          6           0       -0.803528    2.150804   -2.403137
     41          6           0       -2.044449    2.776768   -2.539679
     42          6           0       -2.627061    3.392080   -1.434469
     43          6           0       -1.963759    3.389153   -0.210348
     44          1           0        0.774958    1.570279   -1.043111
     45          1           0       -0.343184    1.675714   -3.267818
     46          1           0       -2.552491    2.789206   -3.499196
     47          1           0       -3.595986    3.874080   -1.518767
     48          1           0       -2.412007    3.859984    0.661282
     49          8           0        0.289625    1.417375    1.627152
     50          1           0       -0.503980    0.586434    1.161959
     51          6           0        2.339527    0.595152    1.172782
     52          8           0        2.075022    0.154365    0.066307
     53          8           0        2.247646   -0.137015    2.289051
     54          1           0        1.532522   -0.805547    2.177473
     55          6           0        3.099732    1.883782    1.392717
     56          1           0        2.628400    2.453720    2.200716
     57          1           0        4.084138    1.573043    1.769210
     58          6           0       -0.068026    2.706111    1.298038
     59          1           0       -0.760268    3.145748    2.040046
     60          1           0        0.814166    3.379010    1.294760
     61          6           0       -1.537841   -0.069557    3.655166
     62          1           0       -0.715350    0.638795    3.514557
     63          1           0       -2.503134    0.433760    3.577605
     64          1           0       -1.450426   -0.612409    4.597351
     65          6           0        3.276312    2.727139    0.132305
     66          1           0        3.662650    2.090864   -0.672421
     67          1           0        2.305833    3.094553   -0.220104
     68          6           0        4.220988    3.904401    0.366550
     69          1           0        4.382438    4.479022   -0.550313
     70          1           0        3.820839    4.587832    1.123148
     71          1           0        5.197543    3.555931    0.720531
     72          6           0        5.021807   -2.065602   -0.536124
     73          1           0        5.621810   -2.008837    0.374127
     74          1           0        5.502663   -2.765604   -1.227326
     75          6           0        4.811476   -0.706029   -1.205103
     76          1           0        4.561532    0.038603   -0.444163
     77          1           0        5.676615   -0.355561   -1.771309
 ---------------------------------------------------------------------

 SCF Done:  E(RM062X) =  -1991.36477729     A.U. after   15 cycles

 The electronic state is 1-A.
 Alpha  occ. eigenvalues --  -90.11839 -19.62797 -19.59858 -19.59723 -19.58972
 Alpha  occ. eigenvalues --  -19.54545 -14.85118 -14.80548 -14.71608 -10.65418
 Alpha  occ. eigenvalues --  -10.63440 -10.62679 -10.62053 -10.59947 -10.58953
 Alpha  occ. eigenvalues --  -10.58827 -10.58000 -10.57778 -10.57088 -10.56040
 Alpha  occ. eigenvalues --  -10.55824 -10.55509 -10.55463 -10.54988 -10.54625
 Alpha  occ. eigenvalues --  -10.54552 -10.54461 -10.54192 -10.54006 -10.53824
 Alpha  occ. eigenvalues --  -10.53576 -10.53239 -10.53235 -10.53006 -10.52947
 Alpha  occ. eigenvalues --  -10.52521  -8.42827  -6.35054  -6.34978  -6.34893
 Alpha  occ. eigenvalues --   -1.19511  -1.18233  -1.13295  -1.09615  -1.08700
 Alpha  occ. eigenvalues --   -1.07761  -1.05112  -0.98863  -0.95240  -0.94689
 Alpha  occ. eigenvalues --   -0.92861  -0.90126  -0.88754  -0.87855  -0.84803
 Alpha  occ. eigenvalues --   -0.84529  -0.84043  -0.83921  -0.82947  -0.81022
 Alpha  occ. eigenvalues --   -0.78870  -0.76576  -0.75817  -0.72534  -0.71595
 Alpha  occ. eigenvalues --   -0.70916  -0.68895  -0.68611  -0.68424  -0.67533
 Alpha  occ. eigenvalues --   -0.65604  -0.64694  -0.64169  -0.63053  -0.62374
 Alpha  occ. eigenvalues --   -0.60434  -0.59871  -0.58466  -0.58186  -0.56574
 Alpha  occ. eigenvalues --   -0.56080  -0.55777  -0.54921  -0.54425  -0.53792
 Alpha  occ. eigenvalues --   -0.53419  -0.53305  -0.52680  -0.51845  -0.51588
 Alpha  occ. eigenvalues --   -0.51178  -0.51006  -0.50658  -0.50467  -0.49982
 Alpha  occ. eigenvalues --   -0.49736  -0.49146  -0.48522  -0.48411  -0.47480
 Alpha  occ. eigenvalues --   -0.47244  -0.46973  -0.46727  -0.46382  -0.46018
 Alpha  occ. eigenvalues --   -0.45807  -0.45234  -0.44447  -0.43595  -0.43438
 Alpha  occ. eigenvalues --   -0.43028  -0.42464  -0.42048  -0.41713  -0.41644
 Alpha  occ. eigenvalues --   -0.41116  -0.40723  -0.40313  -0.40080  -0.39545
 Alpha  occ. eigenvalues --   -0.39283  -0.39016  -0.38807  -0.38644  -0.37877
 Alpha  occ. eigenvalues --   -0.37449  -0.36990  -0.36436  -0.35719  -0.34853
 Alpha  occ. eigenvalues --   -0.34442  -0.33558  -0.32862  -0.31054  -0.29555
 Alpha  occ. eigenvalues --   -0.29121  -0.28591  -0.27635  -0.26530  -0.25558
 Alpha virt. eigenvalues --   -0.01359   0.00439   0.03627   0.04338   0.10077
 Alpha virt. eigenvalues --    0.10227   0.11243   0.11518   0.12626   0.13401
 Alpha virt. eigenvalues --    0.13802   0.14309   0.15183   0.15347   0.15623

 Mulliken charges:
               1
     1  C   -0.305578
     2  C   -0.305664
     3  C   -0.310698
     4  C   -0.066666
     5  C    0.075683
     6  C   -0.306352
     7  H    0.169358
     8  H    0.161882
     9  H    0.162009
    10  H    0.148913
    11  H    0.159934
    12  H    0.208647
    13  H    0.156372
    14  H    0.186275
    15  H    0.156450
    16  H    0.153581
    17  N   -0.428178
    18  C    0.094492
    19  C    0.095251
    20  C   -0.223448
    21  H    0.206515
    22  C   -0.227527
    23  H    0.253231
    24  C    0.428563
    25  H    0.190426
    26  H    0.208503
    27  N   -0.522596
    28  C   -0.159984
    29  H    0.176430
    30  H    0.200461
    31  C   -0.146470
    32  H    0.168952
    33  H    0.197542
    34  N   -0.818253
    35  S    1.248575
    36  O   -0.622082
    37  O   -0.642698
    38  C    0.057218
    39  C   -0.186865
    40  C   -0.189694
    41  C   -0.174076
    42  C   -0.161134
    43  C   -0.203399
    44  H    0.205159
    45  H    0.135736
    46  H    0.153681
    47  H    0.158448
    48  H    0.155742
    49  O   -0.724363
    50  H    0.480791
    51  C    0.686583
    52  O   -0.536253
    53  O   -0.649571
    54  H    0.472176
    55  C   -0.369326
    56  H    0.195728
    57  H    0.163624
    58  C   -0.039699
    59  H    0.101715
    60  H    0.116561
    61  C   -0.671289
    62  H    0.256229
    63  H    0.191049
    64  H    0.209971
    65  C   -0.292332
    66  H    0.144360
    67  H    0.165737
    68  C   -0.479825
    69  H    0.158197
    70  H    0.158906
    71  H    0.150347
    72  C   -0.334762
    73  H    0.184484
    74  H    0.168139
    75  C   -0.335597
    76  H    0.183519
    77  H    0.172238
 Sum of Mulliken charges =  -0.00000

 Dipole moment (field-independent basis, Debye):
    X=              0.8381    Y=             -1.1588    Z=             -6.4078  Tot=              6.5655
 Quadrupole moment (field-independent basis, Debye-Ang):
   XX=           -200.7025   YY=           -224.7770   ZZ=           -221.1784
   XY=            -11.1358   XZ=             -0.1522   YZ=             11.8419

 Normal termination of Gaussian 16 at Thu Feb  7 19:56:19 2019.
