 Gaussian 16, Revision A.03,
 Gaussian 16:  ES64L-G16RevA.03 25-Dec-2016

 ------------------------------------------
 #p M062X/6-31G* em=gd3 force int=ultrafine
 ------------------------------------------

 -----
 Title
 -----
 Symbolic Z-matrix:
 Charge =  0 Multiplicity = 1

                         Standard orientation:
 ---------------------------------------------------------------------
 Center     Atomic      Atomic             Coordinates (Angstroms)
 Number     Number       Type             X           Y           Z
 ---------------------------------------------------------------------
      1          6           0       -4.783469    0.327521   -0.655830
      2          6           0       -4.920766   -0.978595   -1.443882
      3          6           0       -3.567022   -1.413545   -2.018287
      4          6           0       -2.580250   -1.582258   -0.868831
      5          6           0       -2.396770   -0.249600   -0.096454
      6          6           0       -3.747884    0.206747    0.466533
      7          1           0       -3.654082   -2.347380   -2.584089
      8          1           0       -5.303851   -1.768979   -0.785172
      9          1           0       -5.644228   -0.860931   -2.256745
     10          1           0       -4.476947    1.128451   -1.341212
     11          1           0       -5.752825    0.616376   -0.236604
     12          1           0       -2.961028   -2.336998   -0.173717
     13          1           0       -2.075601    0.501361   -0.829827
     14          1           0       -4.094247   -0.510474    1.217975
     15          1           0       -3.603215    1.174422    0.958297
     16          1           0       -3.219708   -0.632671   -2.708277
     17          7           0       -1.237387   -2.046913   -1.273928
     18          6           0       -0.551950   -1.394774   -2.249474
     19          6           0       -0.538751   -2.790213   -0.373885
     20          6           0        0.806018   -1.429113   -2.329955
     21          1           0       -1.147069   -0.816942   -2.945721
     22          6           0        0.819985   -2.848038   -0.371443
     23          1           0       -1.130772   -3.280120    0.391514
     24          6           0        1.558270   -2.061433   -1.295418
     25          1           0        1.295173   -0.889737   -3.129490
     26          1           0        1.306255   -3.395608    0.423451
     27          7           0        2.877165   -1.929253   -1.202663
     28          6           0        3.600103   -2.297238    0.025160
     29          1           0        3.499551   -3.367520    0.225568
     30          1           0        3.181693   -1.711574    0.857553
     31          6           0        3.600731   -0.902914   -1.962824
     32          1           0        3.853596   -1.283299   -2.960152
     33          1           0        2.965802   -0.017479   -2.057466
     34          7           0       -1.302889   -0.303905    0.860322
     35         16           0       -1.383069   -1.126237    2.263916
     36          8           0       -2.568455   -1.989281    2.234775
     37          8           0       -0.087093   -1.765801    2.509498
     38          6           0       -0.647500    2.704717    0.040193
     39          6           0       -0.173746    2.244386   -1.198501
     40          6           0       -0.971360    2.321543   -2.338258
     41          6           0       -2.260818    2.851307   -2.273373
     42          6           0       -2.746156    3.303394   -1.049695
     43          6           0       -1.941255    3.231217    0.087863
     44          1           0        0.801798    1.774121   -1.241039
     45          1           0       -0.577048    1.971463   -3.290097
     46          1           0       -2.876855    2.915698   -3.166147
     47          1           0       -3.747870    3.718409   -0.978582
     48          1           0       -2.327446    3.599924    1.036295
     49          8           0        0.670698    1.592110    1.902967
     50          1           0       -0.308721   -0.058727    0.558766
     51          6           0        1.791378    0.848551    1.258325
     52          8           0        1.369899    0.236099    0.169378
     53          8           0        2.182998   -0.029093    2.299038
     54          1           0        1.475483   -0.696765    2.351290
     55          6           0        3.008938    1.800752    1.110015
     56          1           0        2.988244    2.528059    1.931688
     57          1           0        3.891510    1.175661    1.294996
     58          6           0        0.210135    2.773873    1.306791
     59          1           0       -0.403809    3.263164    2.073977
     60          1           0        1.050554    3.456080    1.111971
     61          6           0       -1.592324    0.110499    3.523715
     62          1           0       -0.733102    0.780896    3.433387
     63          1           0       -2.530961    0.633937    3.333557
     64          1           0       -1.617050   -0.397181    4.489347
     65          6           0        3.188903    2.509538   -0.229425
     66          1           0        3.105568    1.770439   -1.033739
     67          1           0        2.386602    3.232547   -0.412227
     68          6           0        4.534250    3.227767   -0.315703
     69          1           0        4.663295    3.733585   -1.277753
     70          1           0        4.625942    3.979966    0.474871
     71          1           0        5.364709    2.523025   -0.191055
     72          6           0        5.035468   -1.890486   -0.290935
     73          1           0        5.620048   -1.725820    0.616086
     74          1           0        5.527006   -2.667496   -0.886478
     75          6           0        4.844367   -0.615023   -1.115924
     76          1           0        4.627580    0.219735   -0.445047
     77          1           0        5.711383   -0.355112   -1.726955
 ---------------------------------------------------------------------

 SCF Done:  E(RM062X) =  -1991.35893146     A.U. after   14 cycles

 The electronic state is 1-A.
 Alpha  occ. eigenvalues --  -90.14050 -19.61670 -19.61655 -19.58789 -19.56737
 Alpha  occ. eigenvalues --  -19.51397 -14.85123 -14.80459 -14.75468 -10.63381
 Alpha  occ. eigenvalues --  -10.62754 -10.62330 -10.62065 -10.60652 -10.59211
 Alpha  occ. eigenvalues --  -10.58717 -10.57918 -10.57884 -10.57059 -10.56862
 Alpha  occ. eigenvalues --  -10.56654 -10.55603 -10.55575 -10.55193 -10.55036
 Alpha  occ. eigenvalues --  -10.54766 -10.54713 -10.54647 -10.54496 -10.54331
 Alpha  occ. eigenvalues --  -10.54254 -10.54192 -10.53110 -10.51670 -10.51564
 Alpha  occ. eigenvalues --  -10.49798  -8.45029  -6.37244  -6.37224  -6.37067
 Alpha  occ. eigenvalues --   -1.21883  -1.13665  -1.13466  -1.10132  -1.09358
 Alpha  occ. eigenvalues --   -1.05916  -1.01586  -0.99418  -0.95678  -0.94924
 Alpha  occ. eigenvalues --   -0.93456  -0.90234  -0.88755  -0.85925  -0.85810
 Alpha  occ. eigenvalues --   -0.84778  -0.84642  -0.84331  -0.83006  -0.82601
 Alpha  occ. eigenvalues --   -0.76640  -0.76376  -0.75830  -0.74395  -0.72702
 Alpha  occ. eigenvalues --   -0.71561  -0.68342  -0.68292  -0.67906  -0.67144
 Alpha  occ. eigenvalues --   -0.66758  -0.65186  -0.64865  -0.63521  -0.60579
 Alpha  occ. eigenvalues --   -0.60407  -0.59800  -0.58833  -0.57838  -0.57544
 Alpha  occ. eigenvalues --   -0.57124  -0.56420  -0.55694  -0.55156  -0.54166
 Alpha  occ. eigenvalues --   -0.53448  -0.52628  -0.52388  -0.52347  -0.51866
 Alpha  occ. eigenvalues --   -0.51519  -0.51090  -0.50951  -0.49841  -0.49597
 Alpha  occ. eigenvalues --   -0.49159  -0.48801  -0.48206  -0.48108  -0.48066
 Alpha  occ. eigenvalues --   -0.47616  -0.47423  -0.46892  -0.46474  -0.46090
 Alpha  occ. eigenvalues --   -0.44928  -0.44660  -0.44079  -0.43883  -0.43247
 Alpha  occ. eigenvalues --   -0.42437  -0.42074  -0.41564  -0.41435  -0.41197
 Alpha  occ. eigenvalues --   -0.40875  -0.40440  -0.40022  -0.39855  -0.39505
 Alpha  occ. eigenvalues --   -0.39242  -0.39037  -0.38439  -0.37873  -0.37577
 Alpha  occ. eigenvalues --   -0.37349  -0.36726  -0.36568  -0.35674  -0.34871
 Alpha  occ. eigenvalues --   -0.34343  -0.33877  -0.31751  -0.30966  -0.29707
 Alpha  occ. eigenvalues --   -0.28883  -0.28545  -0.27567  -0.24997  -0.24528
 Alpha virt. eigenvalues --   -0.01409   0.00494   0.03621   0.03836   0.10204
 Alpha virt. eigenvalues --    0.11063   0.11571   0.12089   0.13217   0.13549
 Alpha virt. eigenvalues --    0.14208   0.14680   0.14821   0.15358   0.15600

 Mulliken charges:
               1
     1  C   -0.306065
     2  C   -0.306880
     3  C   -0.310269
     4  C   -0.059099
     5  C    0.057055
     6  C   -0.311778
     7  H    0.173713
     8  H    0.162855
     9  H    0.165078
    10  H    0.150517
    11  H    0.162890
    12  H    0.208389
    13  H    0.172437
    14  H    0.193662
    15  H    0.163292
    16  H    0.153677
    17  N   -0.432498
    18  C    0.070119
    19  C    0.064657
    20  C   -0.205367
    21  H    0.207027
    22  C   -0.209242
    23  H    0.245876
    24  C    0.450989
    25  H    0.190789
    26  H    0.211757
    27  N   -0.529311
    28  C   -0.175916
    29  H    0.169954
    30  H    0.236759
    31  C   -0.154004
    32  H    0.168425
    33  H    0.200401
    34  N   -0.817303
    35  S    1.253925
    36  O   -0.611701
    37  O   -0.609508
    38  C    0.090985
    39  C   -0.177502
    40  C   -0.188848
    41  C   -0.170545
    42  C   -0.163646
    43  C   -0.212049
    44  H    0.202962
    45  H    0.141315
    46  H    0.154528
    47  H    0.158219
    48  H    0.152143
    49  O   -0.547758
    50  H    0.449792
    51  C    0.728184
    52  O   -0.724608
    53  O   -0.718198
    54  H    0.445803
    55  C   -0.337549
    56  H    0.150286
    57  H    0.148330
    58  C   -0.094846
    59  H    0.141405
    60  H    0.146658
    61  C   -0.662631
    62  H    0.270701
    63  H    0.196291
    64  H    0.217298
    65  C   -0.295911
    66  H    0.141777
    67  H    0.147056
    68  C   -0.476013
    69  H    0.149497
    70  H    0.156345
    71  H    0.143930
    72  C   -0.331879
    73  H    0.187569
    74  H    0.163724
    75  C   -0.344379
    76  H    0.194331
    77  H    0.171929
 Sum of Mulliken charges =  -0.00000

 Dipole moment (field-independent basis, Debye):
    X=             -2.0789    Y=             -1.9165    Z=             -6.4938  Tot=              7.0827
 Quadrupole moment (field-independent basis, Debye-Ang):
   XX=           -204.6961   YY=           -223.2259   ZZ=           -219.9041
   XY=            -12.0999   XZ=             -5.2225   YZ=             10.1916

 Normal termination of Gaussian 16 at Thu Feb  7 17:09:12 2019.
