 Gaussian 16, Revision A.03,
 Gaussian 16:  ES64L-G16RevA.03 25-Dec-2016

 ------------------------------------------
 #p M062X/6-31G* em=gd3 force int=ultrafine
 ------------------------------------------

 -----
 Title
 -----
 Symbolic Z-matrix:
 Charge =  0 Multiplicity = 1

                         Standard orientation:
 ---------------------------------------------------------------------
 Center     Atomic      Atomic             Coordinates (Angstroms)
 Number     Number       Type             X           Y           Z
 ---------------------------------------------------------------------
      1          6           0       -4.835454    0.470932   -0.531803
      2          6           0       -5.028984   -0.844793   -1.291846
      3          6           0       -3.703342   -1.328578   -1.891628
      4          6           0       -2.688452   -1.503382   -0.767220
      5          6           0       -2.456097   -0.165480   -0.021964
      6          6           0       -3.777050    0.339284    0.568375
      7          1           0       -3.830183   -2.270327   -2.436101
      8          1           0       -5.418146   -1.611709   -0.609336
      9          1           0       -5.768873   -0.721387   -2.088925
     10          1           0       -4.521531    1.250452   -1.238914
     11          1           0       -5.785987    0.795583   -0.096209
     12          1           0       -3.064746   -2.240789   -0.051134
     13          1           0       -2.135207    0.566449   -0.774184
     14          1           0       -4.124127   -0.352898    1.342551
     15          1           0       -3.590623    1.311187    1.038158
     16          1           0       -3.352697   -0.571623   -2.606068
     17          7           0       -1.368933   -2.002023   -1.207317
     18          6           0       -0.688758   -1.355511   -2.191928
     19          6           0       -0.670720   -2.783572   -0.341213
     20          6           0        0.663716   -1.435376   -2.313926
     21          1           0       -1.282742   -0.740485   -2.856351
     22          6           0        0.683613   -2.899887   -0.389534
     23          1           0       -1.254432   -3.257094    0.440677
     24          6           0        1.424843   -2.128669   -1.325503
     25          1           0        1.149529   -0.892673   -3.113691
     26          1           0        1.172619   -3.481837    0.378626
     27          7           0        2.749987   -2.062121   -1.280796
     28          6           0        3.492552   -2.530401   -0.100421
     29          1           0        3.359315   -3.607047    0.037535
     30          1           0        3.119893   -1.979383    0.775328
     31          6           0        3.494460   -1.013944   -1.996132
     32          1           0        3.740594   -1.354820   -3.009515
     33          1           0        2.881857   -0.109501   -2.033786
     34          7           0       -1.338957   -0.227276    0.908784
     35         16           0       -1.358384   -1.048456    2.323330
     36          8           0       -2.591998   -1.838281    2.361598
     37          8           0       -0.086017   -1.755500    2.478722
     38          6           0       -0.536290    2.645906   -0.080860
     39          6           0       -0.062931    2.087300   -1.278134
     40          6           0       -0.829039    2.149714   -2.441398
     41          6           0       -2.082046    2.762212   -2.442495
     42          6           0       -2.563440    3.318476   -1.259849
     43          6           0       -1.793380    3.258776   -0.098156
     44          1           0        0.883100    1.554656   -1.258645
     45          1           0       -0.435970    1.720620   -3.361141
     46          1           0       -2.671607    2.813016   -3.353779
     47          1           0       -3.535587    3.803480   -1.240729
     48          1           0       -2.178632    3.703039    0.817595
     49          8           0        0.744541    1.511993    1.790163
     50          1           0       -0.379584    0.015728    0.588923
     51          6           0        1.942300    0.802877    1.202396
     52          8           0        1.608222    0.190521    0.094720
     53          8           0        2.281667   -0.069613    2.266020
     54          1           0        1.579852   -0.744985    2.266662
     55          6           0        3.116322    1.811998    1.145311
     56          1           0        3.004005    2.527824    1.970254
     57          1           0        4.025622    1.241385    1.373428
     58          6           0        0.279165    2.701195    1.215511
     59          1           0       -0.373798    3.155427    1.973277
     60          1           0        1.107791    3.410367    1.069090
     61          6           0       -1.411464    0.196794    3.590221
     62          1           0       -0.521113    0.814850    3.442398
     63          1           0       -2.329596    0.773243    3.465363
     64          1           0       -1.398860   -0.314407    4.554376
     65          6           0        3.319123    2.550603   -0.175289
     66          1           0        3.530249    1.823464   -0.968454
     67          1           0        2.403538    3.063639   -0.488889
     68          6           0        4.456124    3.566910   -0.077714
     69          1           0        4.629616    4.080197   -1.028564
     70          1           0        4.229627    4.328246    0.677277
     71          1           0        5.392009    3.081132    0.220992
     72          6           0        4.929974   -2.142660   -0.426394
     73          1           0        5.545758   -2.070283    0.471805
     74          1           0        5.379440   -2.880034   -1.100987
     75          6           0        4.740561   -0.799680   -1.133389
     76          1           0        4.510704   -0.034521   -0.386857
     77          1           0        5.605244   -0.482174   -1.719919
 ---------------------------------------------------------------------

 SCF Done:  E(RM062X) =  -1991.35715833     A.U. after   14 cycles

 The electronic state is 1-A.
 Alpha  occ. eigenvalues --  -90.14542 -19.62120 -19.62039 -19.58518 -19.56614
 Alpha  occ. eigenvalues --  -19.50764 -14.85280 -14.80318 -14.76501 -10.63361
 Alpha  occ. eigenvalues --  -10.62772 -10.62257 -10.62005 -10.60950 -10.59664
 Alpha  occ. eigenvalues --  -10.58175 -10.57954 -10.57871 -10.57168 -10.56895
 Alpha  occ. eigenvalues --  -10.56827 -10.55853 -10.55798 -10.54980 -10.54952
 Alpha  occ. eigenvalues --  -10.54902 -10.54799 -10.54646 -10.54538 -10.54532
 Alpha  occ. eigenvalues --  -10.54441 -10.54366 -10.52973 -10.51259 -10.51212
 Alpha  occ. eigenvalues --  -10.49477  -8.45517  -6.37740  -6.37706  -6.37551
 Alpha  occ. eigenvalues --   -1.22341  -1.13630  -1.13198  -1.10592  -1.09214
 Alpha  occ. eigenvalues --   -1.05718  -1.02178  -0.99164  -0.95860  -0.95020
 Alpha  occ. eigenvalues --   -0.93562  -0.90313  -0.88740  -0.86209  -0.85496
 Alpha  occ. eigenvalues --   -0.84853  -0.84788  -0.84048  -0.83081  -0.82923
 Alpha  occ. eigenvalues --   -0.76696  -0.76034  -0.75767  -0.74243  -0.73047
 Alpha  occ. eigenvalues --   -0.71772  -0.68284  -0.68147  -0.67902  -0.67405
 Alpha  occ. eigenvalues --   -0.66617  -0.65362  -0.64820  -0.63516  -0.60503
 Alpha  occ. eigenvalues --   -0.60361  -0.59665  -0.59497  -0.57725  -0.57722
 Alpha  occ. eigenvalues --   -0.57284  -0.56485  -0.55824  -0.55138  -0.54265
 Alpha  occ. eigenvalues --   -0.53611  -0.52838  -0.52608  -0.52490  -0.51961
 Alpha  occ. eigenvalues --   -0.51603  -0.50913  -0.50457  -0.49929  -0.49401
 Alpha  occ. eigenvalues --   -0.49126  -0.48966  -0.48236  -0.48122  -0.47859
 Alpha  occ. eigenvalues --   -0.47782  -0.47549  -0.47054  -0.46286  -0.46022
 Alpha  occ. eigenvalues --   -0.45027  -0.44746  -0.44260  -0.43806  -0.43278
 Alpha  occ. eigenvalues --   -0.42594  -0.42191  -0.41229  -0.41165  -0.40977
 Alpha  occ. eigenvalues --   -0.40812  -0.40557  -0.39970  -0.39781  -0.39260
 Alpha  occ. eigenvalues --   -0.39202  -0.39086  -0.38398  -0.38185  -0.37773
 Alpha  occ. eigenvalues --   -0.37307  -0.36654  -0.36441  -0.35950  -0.34954
 Alpha  occ. eigenvalues --   -0.34423  -0.34114  -0.31798  -0.31214  -0.29811
 Alpha  occ. eigenvalues --   -0.28889  -0.28606  -0.27726  -0.24323  -0.24052
 Alpha virt. eigenvalues --   -0.01452   0.00388   0.03473   0.03709   0.10118
 Alpha virt. eigenvalues --    0.10757   0.11490   0.12375   0.13155   0.13333
 Alpha virt. eigenvalues --    0.14191   0.14360   0.14738   0.15319   0.15579

 Mulliken charges:
               1
     1  C   -0.306381
     2  C   -0.307472
     3  C   -0.309769
     4  C   -0.059137
     5  C    0.055615
     6  C   -0.310023
     7  H    0.174845
     8  H    0.163080
     9  H    0.166342
    10  H    0.150754
    11  H    0.164544
    12  H    0.207706
    13  H    0.174970
    14  H    0.194988
    15  H    0.163460
    16  H    0.155489
    17  N   -0.434021
    18  C    0.070299
    19  C    0.066922
    20  C   -0.203194
    21  H    0.205443
    22  C   -0.211453
    23  H    0.243744
    24  C    0.447791
    25  H    0.192476
    26  H    0.211057
    27  N   -0.523306
    28  C   -0.168914
    29  H    0.168654
    30  H    0.226123
    31  C   -0.151639
    32  H    0.163090
    33  H    0.206444
    34  N   -0.805665
    35  S    1.248347
    36  O   -0.606766
    37  O   -0.599825
    38  C    0.073152
    39  C   -0.190849
    40  C   -0.191014
    41  C   -0.172499
    42  C   -0.164562
    43  C   -0.209836
    44  H    0.221356
    45  H    0.140272
    46  H    0.155030
    47  H    0.158549
    48  H    0.152294
    49  O   -0.561313
    50  H    0.442415
    51  C    0.719862
    52  O   -0.716547
    53  O   -0.714848
    54  H    0.438381
    55  C   -0.338230
    56  H    0.146283
    57  H    0.150272
    58  C   -0.086093
    59  H    0.136487
    60  H    0.149788
    61  C   -0.664327
    62  H    0.276716
    63  H    0.197792
    64  H    0.219256
    65  C   -0.288737
    66  H    0.134735
    67  H    0.144059
    68  C   -0.473682
    69  H    0.148176
    70  H    0.152104
    71  H    0.147164
    72  C   -0.332956
    73  H    0.186287
    74  H    0.161701
    75  C   -0.341428
    76  H    0.200906
    77  H    0.169266
 Sum of Mulliken charges =  -0.00000

 Dipole moment (field-independent basis, Debye):
    X=             -3.1115    Y=             -2.1545    Z=             -6.0833  Tot=              7.1645
 Quadrupole moment (field-independent basis, Debye-Ang):
   XX=           -207.0581   YY=           -221.7058   ZZ=           -219.9668
   XY=            -12.8493   XZ=             -4.6377   YZ=             10.3041

 Normal termination of Gaussian 16 at Thu Feb  7 12:30:29 2019.
