 Gaussian 16, Revision A.03,
 Gaussian 16:  ES64L-G16RevA.03 25-Dec-2016

 ------------------------------------------
 #p M062X/6-31G* em=gd3 force int=ultrafine
 ------------------------------------------

 -----
 Title
 -----
 Symbolic Z-matrix:
 Charge =  0 Multiplicity = 1

                         Standard orientation:
 ---------------------------------------------------------------------
 Center     Atomic      Atomic             Coordinates (Angstroms)
 Number     Number       Type             X           Y           Z
 ---------------------------------------------------------------------
      1          6           0       -4.783533    0.299246   -0.689398
      2          6           0       -4.908563   -1.017575   -1.461457
      3          6           0       -3.548585   -1.452415   -2.020834
      4          6           0       -2.568330   -1.600742   -0.862938
      5          6           0       -2.397857   -0.257669   -0.105669
      6          6           0       -3.755811    0.197460    0.441957
      7          1           0       -3.626551   -2.393928   -2.575156
      8          1           0       -5.292003   -1.801407   -0.795167
      9          1           0       -5.626927   -0.914390   -2.280792
     10          1           0       -4.475914    1.093025   -1.382634
     11          1           0       -5.757354    0.588556   -0.280977
     12          1           0       -2.949156   -2.349094   -0.160936
     13          1           0       -2.075448    0.486261   -0.845730
     14          1           0       -4.103951   -0.513092    1.198786
     15          1           0       -3.620369    1.171397    0.923724
     16          1           0       -3.201196   -0.678550   -2.718582
     17          7           0       -1.220549   -2.062832   -1.254253
     18          6           0       -0.534922   -1.424079   -2.238364
     19          6           0       -0.521763   -2.788947   -0.340327
     20          6           0        0.823303   -1.455528   -2.315196
     21          1           0       -1.130196   -0.860252   -2.945795
     22          6           0        0.837149   -2.841687   -0.333262
     23          1           0       -1.114231   -3.269347    0.430728
     24          6           0        1.575038   -2.068457   -1.268790
     25          1           0        1.312649   -0.928000   -3.122452
     26          1           0        1.323404   -3.374302    0.471786
     27          7           0        2.893594   -1.931919   -1.176926
     28          6           0        3.617582   -2.280201    0.055942
     29          1           0        3.517897   -3.347431    0.272548
     30          1           0        3.199086   -1.682890    0.880050
     31          6           0        3.615947   -0.918184   -1.954634
     32          1           0        3.866354   -1.314256   -2.946469
     33          1           0        2.981048   -0.034126   -2.062532
     34          7           0       -1.310542   -0.294084    0.859435
     35         16           0       -1.397314   -1.099279    2.272333
     36          8           0       -2.580423   -1.965539    2.247760
     37          8           0       -0.101644   -1.733213    2.534124
     38          6           0       -0.655700    2.707173    0.027201
     39          6           0       -0.183615    2.246223   -1.211678
     40          6           0       -0.985207    2.315881   -2.348961
     41          6           0       -2.277376    2.838125   -2.281098
     42          6           0       -2.761278    3.290070   -1.057218
     43          6           0       -1.952130    3.225847    0.077759
     44          1           0        0.794556    1.782028   -1.256689
     45          1           0       -0.592186    1.965572   -3.300937
     46          1           0       -2.896813    2.896679   -3.171892
     47          1           0       -3.765076    3.698833   -0.984091
     48          1           0       -2.337144    3.594711    1.026283
     49          8           0        0.667376    1.607555    1.894268
     50          1           0       -0.314293   -0.051996    0.558507
     51          6           0        1.783899    0.858477    1.249819
     52          8           0        1.357058    0.242128    0.165083
     53          8           0        2.178061   -0.014553    2.294056
     54          1           0        1.463017   -0.674275    2.360682
     55          6           0        3.004164    1.805890    1.092821
     56          1           0        2.987417    2.537413    1.910200
     57          1           0        3.885247    1.177691    1.278650
     58          6           0        0.206544    2.785291    1.290021
     59          1           0       -0.403820    3.281588    2.055149
     60          1           0        1.047394    3.464025    1.087143
     61          6           0       -1.616723    0.153265    3.514682
     62          1           0       -0.757308    0.823061    3.421861
     63          1           0       -2.554473    0.673339    3.310853
     64          1           0       -1.647979   -0.341793    4.486758
     65          6           0        3.183502    2.505881   -0.251227
     66          1           0        3.099132    1.761491   -1.050489
     67          1           0        2.381558    3.228796   -0.437843
     68          6           0        4.529734    3.223229   -0.343144
     69          1           0        4.658670    3.721414   -1.309216
     70          1           0        4.621080    3.981871    0.441525
     71          1           0        5.360570    2.520054   -0.212599
     72          6           0        5.052708   -1.878348   -0.268034
     73          1           0        5.637893   -1.697856    0.635588
     74          1           0        5.544097   -2.665544   -0.850138
     75          6           0        4.861872   -0.617476   -1.115404
     76          1           0        4.649015    0.230192   -0.459601
     77          1           0        5.728101   -0.370669   -1.732964
 ---------------------------------------------------------------------

 SCF Done:  E(RM062X) =  -1991.35895909     A.U. after   14 cycles

 The electronic state is 1-A.
 Alpha  occ. eigenvalues --  -90.14039 -19.61658 -19.61648 -19.58806 -19.56749
 Alpha  occ. eigenvalues --  -19.51402 -14.85115 -14.80458 -14.75439 -10.63371
 Alpha  occ. eigenvalues --  -10.62743 -10.62334 -10.62045 -10.60643 -10.59196
 Alpha  occ. eigenvalues --  -10.58749 -10.57897 -10.57872 -10.57042 -10.56853
 Alpha  occ. eigenvalues --  -10.56652 -10.55596 -10.55582 -10.55209 -10.55072
 Alpha  occ. eigenvalues --  -10.54735 -10.54705 -10.54616 -10.54461 -10.54304
 Alpha  occ. eigenvalues --  -10.54226 -10.54168 -10.53096 -10.51690 -10.51583
 Alpha  occ. eigenvalues --  -10.49810  -8.45019  -6.37234  -6.37213  -6.37057
 Alpha  occ. eigenvalues --   -1.21873  -1.13667  -1.13451  -1.10119  -1.09359
 Alpha  occ. eigenvalues --   -1.05904  -1.01571  -0.99425  -0.95668  -0.94914
 Alpha  occ. eigenvalues --   -0.93451  -0.90220  -0.88755  -0.85925  -0.85806
 Alpha  occ. eigenvalues --   -0.84772  -0.84631  -0.84344  -0.82991  -0.82591
 Alpha  occ. eigenvalues --   -0.76634  -0.76378  -0.75828  -0.74395  -0.72692
 Alpha  occ. eigenvalues --   -0.71550  -0.68348  -0.68295  -0.67897  -0.67137
 Alpha  occ. eigenvalues --   -0.66752  -0.65177  -0.64862  -0.63519  -0.60570
 Alpha  occ. eigenvalues --   -0.60405  -0.59793  -0.58812  -0.57849  -0.57535
 Alpha  occ. eigenvalues --   -0.57117  -0.56416  -0.55680  -0.55157  -0.54165
 Alpha  occ. eigenvalues --   -0.53432  -0.52622  -0.52383  -0.52338  -0.51854
 Alpha  occ. eigenvalues --   -0.51513  -0.51096  -0.50952  -0.49836  -0.49588
 Alpha  occ. eigenvalues --   -0.49158  -0.48798  -0.48210  -0.48108  -0.48059
 Alpha  occ. eigenvalues --   -0.47611  -0.47418  -0.46887  -0.46472  -0.46085
 Alpha  occ. eigenvalues --   -0.44934  -0.44646  -0.44064  -0.43877  -0.43244
 Alpha  occ. eigenvalues --   -0.42427  -0.42072  -0.41585  -0.41444  -0.41206
 Alpha  occ. eigenvalues --   -0.40874  -0.40434  -0.40020  -0.39860  -0.39533
 Alpha  occ. eigenvalues --   -0.39235  -0.39037  -0.38424  -0.37865  -0.37578
 Alpha  occ. eigenvalues --   -0.37343  -0.36728  -0.36562  -0.35670  -0.34870
 Alpha  occ. eigenvalues --   -0.34334  -0.33868  -0.31769  -0.30947  -0.29690
 Alpha  occ. eigenvalues --   -0.28882  -0.28528  -0.27548  -0.25002  -0.24532
 Alpha virt. eigenvalues --   -0.01383   0.00516   0.03646   0.03863   0.10229
 Alpha virt. eigenvalues --    0.11068   0.11541   0.12072   0.13217   0.13540
 Alpha virt. eigenvalues --    0.14226   0.14680   0.14836   0.15386   0.15603

 Mulliken charges:
               1
     1  C   -0.306043
     2  C   -0.306860
     3  C   -0.310429
     4  C   -0.058902
     5  C    0.056825
     6  C   -0.311688
     7  H    0.173722
     8  H    0.162898
     9  H    0.165024
    10  H    0.150366
    11  H    0.162857
    12  H    0.208333
    13  H    0.172331
    14  H    0.193856
    15  H    0.163251
    16  H    0.153593
    17  N   -0.432992
    18  C    0.070577
    19  C    0.065055
    20  C   -0.205932
    21  H    0.207090
    22  C   -0.209438
    23  H    0.245866
    24  C    0.452129
    25  H    0.190664
    26  H    0.211776
    27  N   -0.530054
    28  C   -0.177053
    29  H    0.169960
    30  H    0.238288
    31  C   -0.154103
    32  H    0.168685
    33  H    0.200203
    34  N   -0.817355
    35  S    1.254023
    36  O   -0.611473
    37  O   -0.609798
    38  C    0.092138
    39  C   -0.176755
    40  C   -0.188709
    41  C   -0.170367
    42  C   -0.163585
    43  C   -0.212065
    44  H    0.201995
    45  H    0.141492
    46  H    0.154411
    47  H    0.158048
    48  H    0.151889
    49  O   -0.547720
    50  H    0.449852
    51  C    0.728452
    52  O   -0.724477
    53  O   -0.718300
    54  H    0.445802
    55  C   -0.337222
    56  H    0.150562
    57  H    0.147570
    58  C   -0.095326
    59  H    0.141475
    60  H    0.146620
    61  C   -0.662551
    62  H    0.270192
    63  H    0.196301
    64  H    0.217282
    65  C   -0.295865
    66  H    0.142002
    67  H    0.147073
    68  C   -0.476407
    69  H    0.149568
    70  H    0.156410
    71  H    0.144110
    72  C   -0.331886
    73  H    0.187518
    74  H    0.163861
    75  C   -0.344583
    76  H    0.193840
    77  H    0.172101
 Sum of Mulliken charges =  -0.00000

 Dipole moment (field-independent basis, Debye):
    X=             -2.0014    Y=             -1.9773    Z=             -6.4948  Tot=              7.0780
 Quadrupole moment (field-independent basis, Debye-Ang):
   XX=           -204.5266   YY=           -223.1320   ZZ=           -220.0068
   XY=            -12.1006   XZ=             -5.1142   YZ=             10.2888

 Normal termination of Gaussian 16 at Thu Feb  7 17:32:07 2019.
