 Gaussian 16, Revision A.03,
 Gaussian 16:  ES64L-G16RevA.03 25-Dec-2016

 ------------------------------------------
 #p M062X/6-31G* em=gd3 force int=ultrafine
 ------------------------------------------

 -----
 Title
 -----
 Symbolic Z-matrix:
 Charge =  0 Multiplicity = 1

                         Standard orientation:
 ---------------------------------------------------------------------
 Center     Atomic      Atomic             Coordinates (Angstroms)
 Number     Number       Type             X           Y           Z
 ---------------------------------------------------------------------
      1          6           0       -4.846518    0.540634   -0.521759
      2          6           0       -5.022331   -0.727685   -1.361885
      3          6           0       -3.681935   -1.180064   -1.953880
      4          6           0       -2.695106   -1.434178   -0.818731
      5          6           0       -2.490181   -0.151241    0.022876
      6          6           0       -3.824870    0.331512    0.598992
      7          1           0       -3.797811   -2.082952   -2.562782
      8          1           0       -5.431773   -1.530861   -0.735233
      9          1           0       -5.739633   -0.555425   -2.170318
     10          1           0       -4.500806    1.356842   -1.170903
     11          1           0       -5.807884    0.850034   -0.099385
     12          1           0       -3.088075   -2.220752   -0.166369
     13          1           0       -2.130383    0.622917   -0.667514
     14          1           0       -4.197558   -0.401653    1.322695
     15          1           0       -3.640965    1.271863    1.131391
     16          1           0       -3.310041   -0.378757   -2.606481
     17          7           0       -1.365174   -1.904135   -1.262884
     18          6           0       -0.679481   -1.231576   -2.224872
     19          6           0       -0.671685   -2.723442   -0.428977
     20          6           0        0.671372   -1.327065   -2.359558
     21          1           0       -1.266852   -0.586827   -2.865728
     22          6           0        0.680840   -2.859290   -0.491711
     23          1           0       -1.257963   -3.226057    0.332441
     24          6           0        1.431060   -2.075316   -1.411097
     25          1           0        1.159102   -0.763838   -3.144075
     26          1           0        1.163697   -3.483246    0.247002
     27          7           0        2.758928   -2.051696   -1.388124
     28          6           0        3.498547   -2.584938   -0.233396
     29          1           0        3.351268   -3.665156   -0.145154
     30          1           0        3.134665   -2.071536    0.667728
     31          6           0        3.532085   -1.003036   -2.075973
     32          1           0        3.784153   -1.332085   -3.091875
     33          1           0        2.944440   -0.082850   -2.101525
     34          7           0       -1.407770   -0.302757    0.978218
     35         16           0       -1.440391   -1.205735    2.334005
     36          8           0       -2.665458   -2.007745    2.294470
     37          8           0       -0.162396   -1.905405    2.471017
     38          6           0       -0.545194    2.692719   -0.059196
     39          6           0       -0.036568    2.073639   -1.208657
     40          6           0       -0.731704    2.159802   -2.414369
     41          6           0       -1.950173    2.834661   -2.490763
     42          6           0       -2.469090    3.437226   -1.346131
     43          6           0       -1.766066    3.367686   -0.143693
     44          1           0        0.879926    1.489070   -1.116545
     45          1           0       -0.314919    1.696678   -3.306743
     46          1           0       -2.487174    2.897434   -3.433141
     47          1           0       -3.418491    3.963725   -1.389988
     48          1           0       -2.175937    3.842023    0.745856
     49          8           0        0.635959    1.350243    1.639348
     50          1           0       -0.545838    0.278272    0.920552
     51          6           0        2.055019    0.724663    1.198657
     52          8           0        1.947019    0.178766    0.044107
     53          8           0        2.233642   -0.157508    2.279693
     54          1           0        1.559061   -0.851413    2.164380
     55          6           0        3.102372    1.838386    1.369798
     56          1           0        2.831039    2.487960    2.211244
     57          1           0        4.031988    1.334697    1.665699
     58          6           0        0.203706    2.626562    1.266416
     59          1           0       -0.478514    2.990029    2.051627
     60          1           0        1.040727    3.339968    1.243763
     61          6           0       -1.502325   -0.025891    3.664405
     62          1           0       -0.625016    0.614829    3.529808
     63          1           0       -2.432058    0.539353    3.583841
     64          1           0       -1.454354   -0.574250    4.606436
     65          6           0        3.361453    2.649562    0.102678
     66          1           0        3.712335    1.970618   -0.682853
     67          1           0        2.429569    3.078781   -0.284150
     68          6           0        4.378627    3.764093    0.335000
     69          1           0        4.583444    4.325317   -0.581951
     70          1           0        4.015467    4.473080    1.087575
     71          1           0        5.327834    3.357204    0.701099
     72          6           0        4.941462   -2.199521   -0.537648
     73          1           0        5.552639   -2.169660    0.366271
     74          1           0        5.387739   -2.915010   -1.237547
     75          6           0        4.769659   -0.828679   -1.193357
     76          1           0        4.525803   -0.091246   -0.423353
     77          1           0        5.643517   -0.497402   -1.758446
 ---------------------------------------------------------------------

 SCF Done:  E(RM062X) =  -1991.35546719     A.U. after   15 cycles

 The electronic state is 1-A.
 Alpha  occ. eigenvalues --  -90.14645 -19.62318 -19.61993 -19.58395 -19.57282
 Alpha  occ. eigenvalues --  -19.50996 -14.85173 -14.80072 -14.76258 -10.63169
 Alpha  occ. eigenvalues --  -10.62606 -10.62410 -10.62122 -10.61051 -10.59800
 Alpha  occ. eigenvalues --  -10.57815 -10.57761 -10.57715 -10.56976 -10.56974
 Alpha  occ. eigenvalues --  -10.56853 -10.56370 -10.55845 -10.55105 -10.55053
 Alpha  occ. eigenvalues --  -10.55028 -10.54878 -10.54716 -10.54669 -10.54664
 Alpha  occ. eigenvalues --  -10.54412 -10.54096 -10.53112 -10.51122 -10.51021
 Alpha  occ. eigenvalues --  -10.49675  -8.45621  -6.37847  -6.37795  -6.37673
 Alpha  occ. eigenvalues --   -1.22446  -1.13440  -1.12795  -1.10645  -1.08905
 Alpha  occ. eigenvalues --   -1.06002  -1.02297  -1.00469  -0.95805  -0.95191
 Alpha  occ. eigenvalues --   -0.93471  -0.90112  -0.88578  -0.86484  -0.85430
 Alpha  occ. eigenvalues --   -0.84856  -0.84839  -0.83761  -0.83303  -0.83012
 Alpha  occ. eigenvalues --   -0.76566  -0.76068  -0.75563  -0.74105  -0.73205
 Alpha  occ. eigenvalues --   -0.71735  -0.68222  -0.68117  -0.67757  -0.67474
 Alpha  occ. eigenvalues --   -0.66404  -0.65467  -0.64874  -0.63330  -0.60515
 Alpha  occ. eigenvalues --   -0.60363  -0.59941  -0.59381  -0.57948  -0.57680
 Alpha  occ. eigenvalues --   -0.57161  -0.56366  -0.55619  -0.55029  -0.54367
 Alpha  occ. eigenvalues --   -0.53540  -0.53024  -0.52634  -0.52410  -0.52131
 Alpha  occ. eigenvalues --   -0.51653  -0.50846  -0.50136  -0.49944  -0.49394
 Alpha  occ. eigenvalues --   -0.49229  -0.48898  -0.48514  -0.48196  -0.48039
 Alpha  occ. eigenvalues --   -0.47694  -0.47642  -0.47143  -0.46261  -0.45863
 Alpha  occ. eigenvalues --   -0.45369  -0.45177  -0.44386  -0.44113  -0.43184
 Alpha  occ. eigenvalues --   -0.42465  -0.42330  -0.41213  -0.40909  -0.40758
 Alpha  occ. eigenvalues --   -0.40635  -0.40408  -0.40157  -0.39863  -0.39440
 Alpha  occ. eigenvalues --   -0.39077  -0.38961  -0.38720  -0.38270  -0.37717
 Alpha  occ. eigenvalues --   -0.37474  -0.36540  -0.36435  -0.36001  -0.35036
 Alpha  occ. eigenvalues --   -0.34588  -0.34302  -0.31945  -0.31210  -0.29992
 Alpha  occ. eigenvalues --   -0.29229  -0.28780  -0.27802  -0.24568  -0.24177
 Alpha virt. eigenvalues --   -0.01242   0.00577   0.03223   0.03622   0.10183
 Alpha virt. eigenvalues --    0.10606   0.11374   0.12549   0.13170   0.13329
 Alpha virt. eigenvalues --    0.14171   0.14400   0.15081   0.15531   0.15541

 Mulliken charges:
               1
     1  C   -0.306611
     2  C   -0.307785
     3  C   -0.311589
     4  C   -0.060851
     5  C    0.065907
     6  C   -0.306867
     7  H    0.175278
     8  H    0.163215
     9  H    0.166689
    10  H    0.151929
    11  H    0.164756
    12  H    0.207867
    13  H    0.174036
    14  H    0.191782
    15  H    0.160213
    16  H    0.156712
    17  N   -0.437176
    18  C    0.081325
    19  C    0.081960
    20  C   -0.211780
    21  H    0.202894
    22  C   -0.221924
    23  H    0.244312
    24  C    0.448599
    25  H    0.192103
    26  H    0.209675
    27  N   -0.518674
    28  C   -0.163727
    29  H    0.167533
    30  H    0.219440
    31  C   -0.145171
    32  H    0.160659
    33  H    0.205452
    34  N   -0.813881
    35  S    1.237163
    36  O   -0.604538
    37  O   -0.592289
    38  C    0.049383
    39  C   -0.197968
    40  C   -0.192798
    41  C   -0.172627
    42  C   -0.165062
    43  C   -0.205457
    44  H    0.235658
    45  H    0.140931
    46  H    0.156196
    47  H    0.159836
    48  H    0.154433
    49  O   -0.608060
    50  H    0.452173
    51  C    0.713373
    52  O   -0.680051
    53  O   -0.699088
    54  H    0.433394
    55  C   -0.339319
    56  H    0.145023
    57  H    0.151027
    58  C   -0.077328
    59  H    0.128863
    60  H    0.155461
    61  C   -0.666432
    62  H    0.265625
    63  H    0.200336
    64  H    0.223203
    65  C   -0.285273
    66  H    0.143280
    67  H    0.141125
    68  C   -0.475306
    69  H    0.148607
    70  H    0.149084
    71  H    0.148851
    72  C   -0.334343
    73  H    0.184197
    74  H    0.160368
    75  C   -0.338612
    76  H    0.205782
    77  H    0.164882
 Sum of Mulliken charges =  -0.00000

 Dipole moment (field-independent basis, Debye):
    X=             -3.4335    Y=             -1.4617    Z=             -5.7385  Tot=              6.8452
 Quadrupole moment (field-independent basis, Debye-Ang):
   XX=           -208.1180   YY=           -222.9502   ZZ=           -218.0477
   XY=            -13.6221   XZ=             -4.3425   YZ=             10.7857

 Normal termination of Gaussian 16 at Thu Feb  7 09:06:53 2019.
