 Gaussian 16, Revision A.03,
 Gaussian 16:  ES64L-G16RevA.03 25-Dec-2016

 ------------------------------------------
 #p M062X/6-31G* em=gd3 force int=ultrafine
 ------------------------------------------

 -----
 Title
 -----
 Symbolic Z-matrix:
 Charge =  0 Multiplicity = 1

                         Standard orientation:
 ---------------------------------------------------------------------
 Center     Atomic      Atomic             Coordinates (Angstroms)
 Number     Number       Type             X           Y           Z
 ---------------------------------------------------------------------
      1          6           0       -4.868499    0.205758   -0.454171
      2          6           0       -4.961619   -1.085294   -1.272910
      3          6           0       -3.594511   -1.460115   -1.858254
      4          6           0       -2.590414   -1.607420   -0.719114
      5          6           0       -2.448683   -0.282483    0.083872
      6          6           0       -3.822779    0.091365    0.659372
      7          1           0       -3.653223   -2.386229   -2.441548
      8          1           0       -5.317334   -1.902714   -0.632147
      9          1           0       -5.688918   -0.975284   -2.084173
     10          1           0       -4.583604    1.030734   -1.122450
     11          1           0       -5.848991    0.456707   -0.035668
     12          1           0       -2.923771   -2.396007   -0.038137
     13          1           0       -2.207813    0.485130   -0.667259
     14          1           0       -4.126426   -0.661900    1.397251
     15          1           0       -3.715753    1.049822    1.181230
     16          1           0       -3.284523   -0.653974   -2.537349
     17          7           0       -1.234854   -2.010201   -1.162862
     18          6           0       -0.606939   -1.343167   -2.159059
     19          6           0       -0.492419   -2.759641   -0.313869
     20          6           0        0.747427   -1.387649   -2.326191
     21          1           0       -1.238028   -0.746486   -2.804980
     22          6           0        0.866623   -2.849635   -0.414571
     23          1           0       -1.037562   -3.242386    0.490225
     24          6           0        1.555668   -2.081889   -1.383344
     25          1           0        1.189927   -0.834134   -3.143940
     26          1           0        1.390609   -3.418842    0.340308
     27          7           0        2.893604   -1.999700   -1.391761
     28          6           0        3.673681   -2.480763   -0.243948
     29          1           0        3.607822   -3.569310   -0.159359
     30          1           0        3.277390   -2.025833    0.674646
     31          6           0        3.604064   -0.935400   -2.118063
     32          1           0        3.867968   -1.277360   -3.126114
     33          1           0        2.970423   -0.047081   -2.184878
     34          7           0       -1.319960   -0.276806    0.987921
     35         16           0       -1.294699   -1.184439    2.281563
     36          8           0       -2.331835   -2.239526    2.296164
     37          8           0        0.092496   -1.676426    2.503054
     38          6           0       -0.948235    2.840692   -0.140925
     39          6           0       -0.302048    2.154722   -1.176704
     40          6           0       -0.898969    2.074576   -2.433041
     41          6           0       -2.156394    2.635621   -2.661470
     42          6           0       -2.816278    3.285659   -1.621628
     43          6           0       -2.208729    3.387689   -0.372376
     44          1           0        0.644868    1.653989   -0.981109
     45          1           0       -0.380594    1.566796   -3.243587
     46          1           0       -2.619937    2.566823   -3.641129
     47          1           0       -3.802002    3.713488   -1.778219
     48          1           0       -2.721545    3.890780    0.444061
     49          8           0        0.275102    1.783553    1.670453
     50          1           0       -0.292825    1.021226    1.339027
     51          6           0        2.441652    0.612443    1.176681
     52          8           0        2.093502    0.191735    0.087791
     53          8           0        2.266626   -0.052344    2.309927
     54          1           0        1.540984   -0.726273    2.208093
     55          6           0        3.182554    1.915432    1.368063
     56          1           0        2.659605    2.457282    2.162539
     57          1           0        4.187261    1.688440    1.750682
     58          6           0       -0.308491    2.971696    1.224559
     59          1           0       -1.062903    3.346931    1.935166
     60          1           0        0.490198    3.728161    1.185604
     61          6           0       -1.594967   -0.098057    3.673723
     62          1           0       -0.844355    0.694233    3.618469
     63          1           0       -2.600035    0.317096    3.576711
     64          1           0       -1.496314   -0.667967    4.598477
     65          6           0        3.257777    2.744277    0.090719
     66          1           0        3.672784    2.133066   -0.719667
     67          1           0        2.241170    3.005322   -0.224918
     68          6           0        4.090423    4.010394    0.269043
     69          1           0        4.155816    4.578454   -0.663483
     70          1           0        3.654180    4.665110    1.030791
     71          1           0        5.110402    3.767397    0.586258
     72          6           0        5.088569   -1.993009   -0.542341
     73          1           0        5.680903   -1.884398    0.368470
     74          1           0        5.599695   -2.698615   -1.205034
     75          6           0        4.842870   -0.663379   -1.259308
     76          1           0        4.598182    0.109963   -0.526100
     77          1           0        5.694801   -0.324678   -1.852427
 ---------------------------------------------------------------------

 SCF Done:  E(RM062X) =  -1991.38594421     A.U. after   15 cycles

 The electronic state is 1-A.
 Alpha  occ. eigenvalues --  -90.10283 -19.63493 -19.60155 -19.58973 -19.58437
 Alpha  occ. eigenvalues --  -19.58306 -14.84783 -14.80448 -14.69309 -10.65640
 Alpha  occ. eigenvalues --  -10.63207 -10.62415 -10.61530 -10.59155 -10.59100
 Alpha  occ. eigenvalues --  -10.58956 -10.57822 -10.57393 -10.56770 -10.56688
 Alpha  occ. eigenvalues --  -10.55970 -10.55713 -10.55585 -10.55028 -10.54963
 Alpha  occ. eigenvalues --  -10.54904 -10.54631 -10.54589 -10.54512 -10.53893
 Alpha  occ. eigenvalues --  -10.53584 -10.53489 -10.53357 -10.53320 -10.52786
 Alpha  occ. eigenvalues --  -10.52624  -8.41241  -6.33478  -6.33387  -6.33307
 Alpha  occ. eigenvalues --   -1.19213  -1.17776  -1.12921  -1.10170  -1.09940
 Alpha  occ. eigenvalues --   -1.09096  -1.06053  -0.97521  -0.95322  -0.94749
 Alpha  occ. eigenvalues --   -0.92184  -0.89825  -0.88559  -0.88248  -0.85068
 Alpha  occ. eigenvalues --   -0.84880  -0.83679  -0.83522  -0.83293  -0.80089
 Alpha  occ. eigenvalues --   -0.79307  -0.76321  -0.75622  -0.74676  -0.70936
 Alpha  occ. eigenvalues --   -0.70230  -0.69241  -0.68678  -0.68341  -0.68068
 Alpha  occ. eigenvalues --   -0.65928  -0.64745  -0.63918  -0.63461  -0.61598
 Alpha  occ. eigenvalues --   -0.60258  -0.59367  -0.59062  -0.58350  -0.56155
 Alpha  occ. eigenvalues --   -0.55548  -0.55237  -0.55128  -0.54271  -0.53803
 Alpha  occ. eigenvalues --   -0.53447  -0.53053  -0.52559  -0.51904  -0.51668
 Alpha  occ. eigenvalues --   -0.51086  -0.50959  -0.50614  -0.50057  -0.49830
 Alpha  occ. eigenvalues --   -0.49634  -0.49532  -0.48786  -0.48319  -0.48001
 Alpha  occ. eigenvalues --   -0.47796  -0.47202  -0.47052  -0.46976  -0.45863
 Alpha  occ. eigenvalues --   -0.45633  -0.45210  -0.43945  -0.43671  -0.43451
 Alpha  occ. eigenvalues --   -0.42831  -0.42749  -0.42176  -0.42042  -0.41857
 Alpha  occ. eigenvalues --   -0.41181  -0.40909  -0.40527  -0.39886  -0.39597
 Alpha  occ. eigenvalues --   -0.39367  -0.39289  -0.38964  -0.38400  -0.38016
 Alpha  occ. eigenvalues --   -0.37339  -0.36238  -0.35819  -0.35336  -0.35165
 Alpha  occ. eigenvalues --   -0.34305  -0.33030  -0.32008  -0.31651  -0.31431
 Alpha  occ. eigenvalues --   -0.29919  -0.28847  -0.28323  -0.27359  -0.25350
 Alpha virt. eigenvalues --   -0.01043   0.00675   0.03169   0.03733   0.08910
 Alpha virt. eigenvalues --    0.10171   0.10931   0.11808   0.12955   0.13548
 Alpha virt. eigenvalues --    0.13838   0.14304   0.14987   0.15479   0.15844

 Mulliken charges:
               1
     1  C   -0.303944
     2  C   -0.304202
     3  C   -0.309715
     4  C   -0.072602
     5  C    0.065833
     6  C   -0.304834
     7  H    0.166692
     8  H    0.161142
     9  H    0.159187
    10  H    0.145409
    11  H    0.156889
    12  H    0.210955
    13  H    0.140795
    14  H    0.179870
    15  H    0.150234
    16  H    0.149924
    17  N   -0.423942
    18  C    0.098139
    19  C    0.086396
    20  C   -0.226745
    21  H    0.204630
    22  C   -0.226599
    23  H    0.262172
    24  C    0.427234
    25  H    0.187695
    26  H    0.207630
    27  N   -0.527439
    28  C   -0.158633
    29  H    0.178267
    30  H    0.198449
    31  C   -0.146149
    32  H    0.169588
    33  H    0.194418
    34  N   -0.762395
    35  S    1.248487
    36  O   -0.642716
    37  O   -0.669446
    38  C    0.049784
    39  C   -0.176080
    40  C   -0.188247
    41  C   -0.169514
    42  C   -0.161145
    43  C   -0.199265
    44  H    0.204675
    45  H    0.139376
    46  H    0.156821
    47  H    0.162177
    48  H    0.158088
    49  O   -0.716369
    50  H    0.484836
    51  C    0.657630
    52  O   -0.521114
    53  O   -0.646860
    54  H    0.484566
    55  C   -0.371947
    56  H    0.202716
    57  H    0.165725
    58  C   -0.063685
    59  H    0.127216
    60  H    0.148676
    61  C   -0.661174
    62  H    0.226059
    63  H    0.186405
    64  H    0.206502
    65  C   -0.289326
    66  H    0.145694
    67  H    0.162328
    68  C   -0.480381
    69  H    0.159288
    70  H    0.158483
    71  H    0.151614
    72  C   -0.336709
    73  H    0.184441
    74  H    0.169816
    75  C   -0.335794
    76  H    0.181097
    77  H    0.172922
 Sum of Mulliken charges =  -0.00000

 Dipole moment (field-independent basis, Debye):
    X=              1.5644    Y=             -0.1520    Z=             -6.6682  Tot=              6.8509
 Quadrupole moment (field-independent basis, Debye-Ang):
   XX=           -199.3545   YY=           -222.4681   ZZ=           -222.6083
   XY=            -11.6343   XZ=              0.0084   YZ=             12.7415

 Normal termination of Gaussian 16 at Thu Feb  7 22:44:34 2019.
