 Gaussian 16, Revision A.03,
 Gaussian 16:  ES64L-G16RevA.03 25-Dec-2016

 ------------------------------------------
 #p M062X/6-31G* em=gd3 force int=ultrafine
 ------------------------------------------

 -----
 Title
 -----
 Symbolic Z-matrix:
 Charge =  0 Multiplicity = 1

                         Standard orientation:
 ---------------------------------------------------------------------
 Center     Atomic      Atomic             Coordinates (Angstroms)
 Number     Number       Type             X           Y           Z
 ---------------------------------------------------------------------
      1          6           0       -4.854721    0.537891   -0.531811
      2          6           0       -5.031053   -0.740258   -1.356750
      3          6           0       -3.691261   -1.198839   -1.945214
      4          6           0       -2.702188   -1.437748   -0.808648
      5          6           0       -2.496800   -0.144541    0.017084
      6          6           0       -3.831153    0.342974    0.589795
      7          1           0       -3.807301   -2.109590   -2.542257
      8          1           0       -5.439158   -1.536247   -0.720141
      9          1           0       -5.749667   -0.577881   -2.166080
     10          1           0       -4.511026    1.346686   -1.191177
     11          1           0       -5.815594    0.851397   -0.111352
     12          1           0       -3.093682   -2.216379   -0.145898
     13          1           0       -2.138912    0.622163   -0.682426
     14          1           0       -4.201956   -0.382422    1.322108
     15          1           0       -3.647753    1.289351    1.111372
     16          1           0       -3.321047   -0.405919   -2.608917
     17          7           0       -1.373015   -1.912417   -1.249159
     18          6           0       -0.686742   -1.247938   -2.216728
     19          6           0       -0.680219   -2.726066   -0.409080
     20          6           0        0.663897   -1.345679   -2.350661
     21          1           0       -1.273748   -0.607804   -2.862619
     22          6           0        0.672062   -2.863183   -0.470569
     23          1           0       -1.266879   -3.221962    0.356441
     24          6           0        1.423058   -2.086417   -1.395587
     25          1           0        1.152124   -0.788724   -3.139306
     26          1           0        1.154462   -3.481361    0.273229
     27          7           0        2.750675   -2.063051   -1.371482
     28          6           0        3.488170   -2.584613   -0.209774
     29          1           0        3.341471   -3.664028   -0.111394
     30          1           0        3.122126   -2.062020    0.685215
     31          6           0        3.524420   -1.019435   -2.066373
     32          1           0        3.779606   -1.356946   -3.078694
     33          1           0        2.935524   -0.100382   -2.100955
     34          7           0       -1.414306   -0.280428    0.974862
     35         16           0       -1.438427   -1.171017    2.339692
     36          8           0       -2.669300   -1.964424    2.317247
     37          8           0       -0.164015   -1.877608    2.472754
     38          6           0       -0.531634    2.683327   -0.064218
     39          6           0       -0.033790    2.070801   -1.222144
     40          6           0       -0.745352    2.154347   -2.418501
     41          6           0       -1.968616    2.822104   -2.478165
     42          6           0       -2.476518    3.418832   -1.325610
     43          6           0       -1.757885    3.350466   -0.132421
     44          1           0        0.887106    1.491878   -1.142775
     45          1           0       -0.337002    1.695270   -3.316836
     46          1           0       -2.517946    2.883547   -3.413513
     47          1           0       -3.429484    3.939795   -1.355894
     48          1           0       -2.159375    3.820418    0.763250
     49          8           0        0.663703    1.357310    1.646548
     50          1           0       -0.536579    0.266725    0.881646
     51          6           0        2.052893    0.730431    1.186862
     52          8           0        1.923070    0.178549    0.033594
     53          8           0        2.253960   -0.154920    2.265555
     54          1           0        1.567507   -0.839848    2.168791
     55          6           0        3.120913    1.830408    1.333167
     56          1           0        2.872674    2.490404    2.173835
     57          1           0        4.046803    1.314666    1.619453
     58          6           0        0.233356    2.629106    1.253364
     59          1           0       -0.438080    3.006025    2.040770
     60          1           0        1.073476    3.337437    1.211302
     61          6           0       -1.482883    0.021209    3.659170
     62          1           0       -0.599363    0.651332    3.515913
     63          1           0       -2.407101    0.595088    3.576679
     64          1           0       -1.437675   -0.520062    4.605451
     65          6           0        3.376185    2.630178    0.057785
     66          1           0        3.705631    1.941540   -0.728544
     67          1           0        2.447064    3.073166   -0.320051
     68          6           0        4.414714    3.728962    0.270426
     69          1           0        4.618854    4.279916   -0.652906
     70          1           0        4.072110    4.449536    1.021617
     71          1           0        5.360898    3.308617    0.629167
     72          6           0        4.931394   -2.200816   -0.514133
     73          1           0        5.540026   -2.161886    0.391165
     74          1           0        5.380335   -2.921907   -1.206507
     75          6           0        4.759310   -0.835965   -1.181931
     76          1           0        4.512085   -0.093176   -0.418235
     77          1           0        5.634122   -0.507349   -1.747132
 ---------------------------------------------------------------------

 SCF Done:  E(RM062X) =  -1991.35556563     A.U. after   15 cycles

 The electronic state is 1-A.
 Alpha  occ. eigenvalues --  -90.14707 -19.62353 -19.62048 -19.58548 -19.57134
 Alpha  occ. eigenvalues --  -19.50770 -14.85176 -14.80043 -14.76421 -10.63156
 Alpha  occ. eigenvalues --  -10.62606 -10.62299 -10.62121 -10.61072 -10.59849
 Alpha  occ. eigenvalues --  -10.57772 -10.57756 -10.57647 -10.57029 -10.56968
 Alpha  occ. eigenvalues --  -10.56876 -10.56366 -10.55864 -10.55124 -10.55074
 Alpha  occ. eigenvalues --  -10.55045 -10.54890 -10.54689 -10.54676 -10.54664
 Alpha  occ. eigenvalues --  -10.54452 -10.54050 -10.53125 -10.51110 -10.51005
 Alpha  occ. eigenvalues --  -10.49613  -8.45680  -6.37907  -6.37856  -6.37730
 Alpha  occ. eigenvalues --   -1.22499  -1.13447  -1.12829  -1.10701  -1.08877
 Alpha  occ. eigenvalues --   -1.06000  -1.02380  -1.00189  -0.95818  -0.95219
 Alpha  occ. eigenvalues --   -0.93467  -0.90113  -0.88566  -0.86518  -0.85391
 Alpha  occ. eigenvalues --   -0.84912  -0.84846  -0.83716  -0.83318  -0.83040
 Alpha  occ. eigenvalues --   -0.76562  -0.76020  -0.75551  -0.74205  -0.73242
 Alpha  occ. eigenvalues --   -0.71748  -0.68231  -0.68129  -0.67746  -0.67476
 Alpha  occ. eigenvalues --   -0.66422  -0.65480  -0.64885  -0.63328  -0.60511
 Alpha  occ. eigenvalues --   -0.60378  -0.59942  -0.59404  -0.57949  -0.57685
 Alpha  occ. eigenvalues --   -0.57151  -0.56379  -0.55648  -0.55074  -0.54383
 Alpha  occ. eigenvalues --   -0.53552  -0.53057  -0.52659  -0.52453  -0.52172
 Alpha  occ. eigenvalues --   -0.51672  -0.50817  -0.50128  -0.49925  -0.49367
 Alpha  occ. eigenvalues --   -0.49245  -0.48922  -0.48502  -0.48193  -0.48025
 Alpha  occ. eigenvalues --   -0.47710  -0.47643  -0.47155  -0.46200  -0.45827
 Alpha  occ. eigenvalues --   -0.45335  -0.45174  -0.44392  -0.44060  -0.43186
 Alpha  occ. eigenvalues --   -0.42465  -0.42334  -0.41200  -0.40872  -0.40752
 Alpha  occ. eigenvalues --   -0.40663  -0.40398  -0.40141  -0.39842  -0.39421
 Alpha  occ. eigenvalues --   -0.39118  -0.38912  -0.38714  -0.38299  -0.37764
 Alpha  occ. eigenvalues --   -0.37444  -0.36522  -0.36441  -0.36040  -0.35028
 Alpha  occ. eigenvalues --   -0.34565  -0.34295  -0.31842  -0.31302  -0.30021
 Alpha  occ. eigenvalues --   -0.29283  -0.28815  -0.27776  -0.24395  -0.24056
 Alpha virt. eigenvalues --   -0.01233   0.00581   0.03203   0.03578   0.10162
 Alpha virt. eigenvalues --    0.10594   0.11352   0.12566   0.13165   0.13328
 Alpha virt. eigenvalues --    0.14155   0.14421   0.15070   0.15532   0.15539

 Mulliken charges:
               1
     1  C   -0.306510
     2  C   -0.307788
     3  C   -0.311348
     4  C   -0.060557
     5  C    0.065528
     6  C   -0.306803
     7  H    0.175436
     8  H    0.163256
     9  H    0.166742
    10  H    0.151454
    11  H    0.164875
    12  H    0.207481
    13  H    0.174374
    14  H    0.192341
    15  H    0.160476
    16  H    0.156496
    17  N   -0.437356
    18  C    0.080062
    19  C    0.080691
    20  C   -0.210492
    21  H    0.202827
    22  C   -0.221171
    23  H    0.243784
    24  C    0.448911
    25  H    0.192053
    26  H    0.209723
    27  N   -0.518220
    28  C   -0.164686
    29  H    0.167119
    30  H    0.220491
    31  C   -0.145209
    32  H    0.160381
    33  H    0.205384
    34  N   -0.812054
    35  S    1.237731
    36  O   -0.603830
    37  O   -0.591787
    38  C    0.049481
    39  C   -0.197200
    40  C   -0.192647
    41  C   -0.172501
    42  C   -0.165245
    43  C   -0.205233
    44  H    0.235062
    45  H    0.141374
    46  H    0.156266
    47  H    0.159881
    48  H    0.154377
    49  O   -0.602073
    50  H    0.451057
    51  C    0.714886
    52  O   -0.686224
    53  O   -0.701421
    54  H    0.432629
    55  C   -0.340012
    56  H    0.144063
    57  H    0.150999
    58  C   -0.079476
    59  H    0.130371
    60  H    0.156290
    61  C   -0.666242
    62  H    0.266886
    63  H    0.200319
    64  H    0.223016
    65  C   -0.285111
    66  H    0.142885
    67  H    0.140603
    68  C   -0.475109
    69  H    0.148384
    70  H    0.149116
    71  H    0.148734
    72  C   -0.334131
    73  H    0.184276
    74  H    0.160045
    75  C   -0.338433
    76  H    0.205516
    77  H    0.164734
 Sum of Mulliken charges =  -0.00000

 Dipole moment (field-independent basis, Debye):
    X=             -3.5411    Y=             -1.4922    Z=             -5.7167  Tot=              6.8881
 Quadrupole moment (field-independent basis, Debye-Ang):
   XX=           -208.5138   YY=           -222.6286   ZZ=           -218.1730
   XY=            -13.4802   XZ=             -4.1813   YZ=             10.7966

 Normal termination of Gaussian 16 at Thu Feb  7 09:37:40 2019.
