 Gaussian 16, Revision A.03,
 Gaussian 16:  ES64L-G16RevA.03 25-Dec-2016

 ------------------------------------------
 #p M062X/6-31G* em=gd3 force int=ultrafine
 ------------------------------------------

 -----
 Title
 -----
 Symbolic Z-matrix:
 Charge =  0 Multiplicity = 1

                         Standard orientation:
 ---------------------------------------------------------------------
 Center     Atomic      Atomic             Coordinates (Angstroms)
 Number     Number       Type             X           Y           Z
 ---------------------------------------------------------------------
      1          6           0       -4.868232    0.210726   -0.455377
      2          6           0       -4.962996   -1.080079   -1.274311
      3          6           0       -3.596326   -1.456531   -1.859669
      4          6           0       -2.592527   -1.605620   -0.720501
      5          6           0       -2.449312   -0.281309    0.083252
      6          6           0       -3.822985    0.094590    0.658454
      7          1           0       -3.656215   -2.382233   -2.443468
      8          1           0       -5.319795   -1.897120   -0.633676
      9          1           0       -5.690110   -0.969016   -2.085603
     10          1           0       -4.581934    1.035362   -1.123482
     11          1           0       -5.848484    0.463114   -0.037151
     12          1           0       -2.926659   -2.394340   -0.039990
     13          1           0       -2.207113    0.486270   -0.667512
     14          1           0       -4.128060   -0.658127    1.396281
     15          1           0       -3.714522    1.052904    1.180278
     16          1           0       -3.285216   -0.650431   -2.538296
     17          7           0       -1.237147   -2.009230   -1.164260
     18          6           0       -0.608547   -1.342073   -2.159960
     19          6           0       -0.495244   -2.759038   -0.315135
     20          6           0        0.745884   -1.387002   -2.326601
     21          1           0       -1.239081   -0.744794   -2.805868
     22          6           0        0.863831   -2.849610   -0.415439
     23          1           0       -1.040792   -3.241793    0.488677
     24          6           0        1.553547   -2.081995   -1.383822
     25          1           0        1.188870   -0.833167   -3.143863
     26          1           0        1.387268   -3.419162    0.339564
     27          7           0        2.891591   -2.000457   -1.391844
     28          6           0        3.671007   -2.481842   -0.243692
     29          1           0        3.604439   -3.570312   -0.158899
     30          1           0        3.274784   -2.026488    0.674727
     31          6           0        3.602795   -0.936176   -2.117540
     32          1           0        3.866888   -1.277889   -3.125614
     33          1           0        2.969622   -0.047518   -2.184288
     34          7           0       -1.320841   -0.278227    0.987439
     35         16           0       -1.296687   -1.184533    2.281720
     36          8           0       -2.335898   -2.237537    2.297568
     37          8           0        0.090038   -1.678458    2.502339
     38          6           0       -0.942239    2.839202   -0.139310
     39          6           0       -0.298406    2.153576   -1.176899
     40          6           0       -0.897082    2.075985   -2.432597
     41          6           0       -2.154052    2.639120   -2.658630
     42          6           0       -2.811735    3.288477   -1.617011
     43          6           0       -2.202398    3.387856   -0.368437
     44          1           0        0.648195    1.651465   -0.983482
     45          1           0       -0.380527    1.568758   -3.244669
     46          1           0       -2.618942    2.572460   -3.637805
     47          1           0       -3.797021    3.717958   -1.771609
     48          1           0       -2.713366    3.890337    0.449515
     49          8           0        0.275835    1.777666    1.671485
     50          1           0       -0.292483    1.014637    1.338333
     51          6           0        2.442388    0.610473    1.175536
     52          8           0        2.093001    0.190673    0.086614
     53          8           0        2.267840   -0.055558    2.308096
     54          1           0        1.541629   -0.728722    2.206565
     55          6           0        3.181671    1.914147    1.367734
     56          1           0        2.657385    2.455978    2.161306
     57          1           0        4.185798    1.687603    1.752014
     58          6           0       -0.301348    2.968115    1.226050
     59          1           0       -1.054103    3.346459    1.936656
     60          1           0        0.500747    3.720925    1.186576
     61          6           0       -1.593335   -0.096090    3.673091
     62          1           0       -0.840644    0.694139    3.616383
     63          1           0       -2.597296    0.321767    3.576402
     64          1           0       -1.495473   -0.665282    4.598361
     65          6           0        3.258894    2.742811    0.090327
     66          1           0        3.672998    2.130783   -0.719870
     67          1           0        2.243070    3.006014   -0.225987
     68          6           0        4.094164    4.007163    0.269062
     69          1           0        4.161737    4.574820   -0.663556
     70          1           0        3.658797    4.663116    1.030227
     71          1           0        5.113293    3.761867    0.587245
     72          6           0        5.086278   -1.994972   -0.541698
     73          1           0        5.678553   -1.887030    0.369222
     74          1           0        5.596991   -2.700714   -1.204568
     75          6           0        4.841496   -0.665014   -1.258333
     76          1           0        4.597099    0.108236   -0.524929
     77          1           0        5.693768   -0.326531   -1.851077
 ---------------------------------------------------------------------

 SCF Done:  E(RM062X) =  -1991.38579117     A.U. after   15 cycles

 The electronic state is 1-A.
 Alpha  occ. eigenvalues --  -90.10283 -19.63504 -19.60159 -19.58943 -19.58430
 Alpha  occ. eigenvalues --  -19.58309 -14.84785 -14.80447 -14.69314 -10.65650
 Alpha  occ. eigenvalues --  -10.63208 -10.62416 -10.61535 -10.59163 -10.59099
 Alpha  occ. eigenvalues --  -10.58954 -10.57823 -10.57383 -10.56771 -10.56695
 Alpha  occ. eigenvalues --  -10.55969 -10.55713 -10.55589 -10.55027 -10.54962
 Alpha  occ. eigenvalues --  -10.54900 -10.54624 -10.54592 -10.54505 -10.53893
 Alpha  occ. eigenvalues --  -10.53586 -10.53482 -10.53368 -10.53330 -10.52793
 Alpha  occ. eigenvalues --  -10.52627  -8.41241  -6.33478  -6.33387  -6.33307
 Alpha  occ. eigenvalues --   -1.19223  -1.17773  -1.12923  -1.10151  -1.09943
 Alpha  occ. eigenvalues --   -1.09093  -1.06050  -0.97528  -0.95317  -0.94751
 Alpha  occ. eigenvalues --   -0.92188  -0.89826  -0.88560  -0.88258  -0.85060
 Alpha  occ. eigenvalues --   -0.84878  -0.83682  -0.83521  -0.83294  -0.80089
 Alpha  occ. eigenvalues --   -0.79318  -0.76322  -0.75623  -0.74666  -0.70939
 Alpha  occ. eigenvalues --   -0.70236  -0.69252  -0.68678  -0.68340  -0.68066
 Alpha  occ. eigenvalues --   -0.65929  -0.64748  -0.63920  -0.63470  -0.61600
 Alpha  occ. eigenvalues --   -0.60259  -0.59368  -0.59061  -0.58351  -0.56156
 Alpha  occ. eigenvalues --   -0.55550  -0.55243  -0.55133  -0.54285  -0.53811
 Alpha  occ. eigenvalues --   -0.53449  -0.53054  -0.52560  -0.51903  -0.51667
 Alpha  occ. eigenvalues --   -0.51087  -0.50958  -0.50615  -0.50048  -0.49831
 Alpha  occ. eigenvalues --   -0.49638  -0.49532  -0.48786  -0.48320  -0.47999
 Alpha  occ. eigenvalues --   -0.47802  -0.47205  -0.47056  -0.46976  -0.45862
 Alpha  occ. eigenvalues --   -0.45629  -0.45210  -0.43947  -0.43673  -0.43453
 Alpha  occ. eigenvalues --   -0.42836  -0.42760  -0.42175  -0.42034  -0.41856
 Alpha  occ. eigenvalues --   -0.41185  -0.40910  -0.40527  -0.39884  -0.39600
 Alpha  occ. eigenvalues --   -0.39366  -0.39293  -0.38973  -0.38402  -0.38019
 Alpha  occ. eigenvalues --   -0.37341  -0.36236  -0.35811  -0.35337  -0.35164
 Alpha  occ. eigenvalues --   -0.34300  -0.33025  -0.32006  -0.31652  -0.31414
 Alpha  occ. eigenvalues --   -0.29917  -0.28837  -0.28323  -0.27358  -0.25357
 Alpha virt. eigenvalues --   -0.01046   0.00675   0.03170   0.03737   0.08893
 Alpha virt. eigenvalues --    0.10172   0.10934   0.11806   0.12954   0.13545
 Alpha virt. eigenvalues --    0.13835   0.14307   0.14985   0.15478   0.15845

 Mulliken charges:
               1
     1  C   -0.303963
     2  C   -0.304211
     3  C   -0.309737
     4  C   -0.072543
     5  C    0.065986
     6  C   -0.304862
     7  H    0.166733
     8  H    0.161159
     9  H    0.159202
    10  H    0.145411
    11  H    0.156914
    12  H    0.210860
    13  H    0.140842
    14  H    0.179941
    15  H    0.150297
    16  H    0.149939
    17  N   -0.423945
    18  C    0.098049
    19  C    0.086642
    20  C   -0.226685
    21  H    0.204639
    22  C   -0.226630
    23  H    0.262027
    24  C    0.427184
    25  H    0.187690
    26  H    0.207648
    27  N   -0.527384
    28  C   -0.158669
    29  H    0.178265
    30  H    0.198393
    31  C   -0.146109
    32  H    0.169587
    33  H    0.194385
    34  N   -0.762731
    35  S    1.248398
    36  O   -0.642447
    37  O   -0.669538
    38  C    0.049986
    39  C   -0.176209
    40  C   -0.188267
    41  C   -0.169560
    42  C   -0.161070
    43  C   -0.199413
    44  H    0.204603
    45  H    0.139369
    46  H    0.156813
    47  H    0.162158
    48  H    0.158076
    49  O   -0.716565
    50  H    0.484847
    51  C    0.657893
    52  O   -0.521167
    53  O   -0.646786
    54  H    0.484486
    55  C   -0.372065
    56  H    0.202872
    57  H    0.165767
    58  C   -0.063103
    59  H    0.127021
    60  H    0.148249
    61  C   -0.661330
    62  H    0.226363
    63  H    0.186341
    64  H    0.206468
    65  C   -0.289442
    66  H    0.145771
    67  H    0.162361
    68  C   -0.480398
    69  H    0.159327
    70  H    0.158505
    71  H    0.151648
    72  C   -0.336678
    73  H    0.184436
    74  H    0.169812
    75  C   -0.335772
    76  H    0.180997
    77  H    0.172917
 Sum of Mulliken charges =  -0.00000

 Dipole moment (field-independent basis, Debye):
    X=              1.5705    Y=             -0.1451    Z=             -6.6715  Tot=              6.8554
 Quadrupole moment (field-independent basis, Debye-Ang):
   XX=           -199.3850   YY=           -222.4776   ZZ=           -222.6256
   XY=            -11.6164   XZ=              0.0609   YZ=             12.7589

 Normal termination of Gaussian 16 at Thu Feb  7 22:41:18 2019.
