 Gaussian 16, Revision A.03,
 Gaussian 16:  ES64L-G16RevA.03 25-Dec-2016

 ------------------------------------------
 #p M062X/6-31G* em=gd3 force int=ultrafine
 ------------------------------------------

 -----
 Title
 -----
 Symbolic Z-matrix:
 Charge =  0 Multiplicity = 1

                         Standard orientation:
 ---------------------------------------------------------------------
 Center     Atomic      Atomic             Coordinates (Angstroms)
 Number     Number       Type             X           Y           Z
 ---------------------------------------------------------------------
      1          6           0       -4.848710    0.374121   -0.498969
      2          6           0       -4.980353   -0.896615   -1.344076
      3          6           0       -3.625445   -1.302522   -1.937426
      4          6           0       -2.636737   -1.520255   -0.799520
      5          6           0       -2.461684   -0.235733    0.051842
      6          6           0       -3.819219    0.197303    0.620248
      7          1           0       -3.711498   -2.207167   -2.549310
      8          1           0       -5.359996   -1.715107   -0.718633
      9          1           0       -5.703247   -0.748240   -2.152595
     10          1           0       -4.531225    1.202489   -1.148193
     11          1           0       -5.822224    0.650086   -0.080230
     12          1           0       -2.995347   -2.319602   -0.143463
     13          1           0       -2.157944    0.548521   -0.659369
     14          1           0       -4.162375   -0.547527    1.347784
     15          1           0       -3.669108    1.144312    1.153415
     16          1           0       -3.282157   -0.485888   -2.587539
     17          7           0       -1.285545   -1.942230   -1.243910
     18          6           0       -0.628799   -1.254622   -2.208034
     19          6           0       -0.567233   -2.730649   -0.408612
     20          6           0        0.726788   -1.318941   -2.357667
     21          1           0       -1.236998   -0.621660   -2.841117
     22          6           0        0.791665   -2.843342   -0.493147
     23          1           0       -1.131722   -3.237091    0.366745
     24          6           0        1.509520   -2.057130   -1.426319
     25          1           0        1.191473   -0.744579   -3.148511
     26          1           0        1.293834   -3.448237    0.248789
     27          7           0        2.848607   -1.995739   -1.412727
     28          6           0        3.602555   -2.504195   -0.258287
     29          1           0        3.505110   -3.590049   -0.177273
     30          1           0        3.211924   -2.038233    0.657337
     31          6           0        3.584568   -0.918841   -2.096952
     32          1           0        3.855371   -1.233493   -3.111686
     33          1           0        2.966712   -0.018311   -2.142208
     34          7           0       -1.356803   -0.346979    0.967085
     35         16           0       -1.387925   -1.231980    2.279921
     36          8           0       -2.518872   -2.181772    2.310959
     37          8           0       -0.038818   -1.824645    2.475425
     38          6           0       -0.762008    2.778451   -0.067415
     39          6           0       -0.175245    2.136566   -1.165924
     40          6           0       -0.817546    2.156949   -2.402042
     41          6           0       -2.060251    2.776235   -2.547070
     42          6           0       -2.654264    3.392693   -1.448643
     43          6           0       -1.999771    3.395552   -0.220513
     44          1           0        0.756545    1.588710   -1.033783
     45          1           0       -0.350858    1.678454   -3.260931
     46          1           0       -2.564690    2.777828   -3.508359
     47          1           0       -3.626566    3.866386   -1.539702
     48          1           0       -2.455688    3.865229    0.647583
     49          8           0        0.281972    1.472180    1.667366
     50          1           0       -0.363180    0.774489    1.256516
     51          6           0        2.400098    0.567108    1.170773
     52          8           0        2.091243    0.155761    0.067780
     53          8           0        2.262663   -0.147264    2.286206
     54          1           0        1.531045   -0.806351    2.177047
     55          6           0        3.127632    1.873676    1.394717
     56          1           0        2.613814    2.420059    2.193589
     57          1           0        4.117494    1.612630    1.791392
     58          6           0       -0.114169    2.748269    1.297525
     59          1           0       -0.810541    3.178020    2.035015
     60          1           0        0.783375    3.384268    1.303158
     61          6           0       -1.548142   -0.087446    3.651464
     62          1           0       -0.732943    0.630776    3.533632
     63          1           0       -2.514962    0.414555    3.582035
     64          1           0       -1.455592   -0.633761    4.590928
     65          6           0        3.277719    2.725920    0.135627
     66          1           0        3.663451    2.101572   -0.678501
     67          1           0        2.297637    3.080604   -0.204880
     68          6           0        4.206027    3.916806    0.366182
     69          1           0        4.355498    4.493397   -0.551292
     70          1           0        3.800984    4.595009    1.124866
     71          1           0        5.188418    3.580532    0.715107
     72          6           0        5.030944   -2.051183   -0.542757
     73          1           0        5.629748   -1.990631    0.368199
     74          1           0        5.516726   -2.748820   -1.232629
     75          6           0        4.816455   -0.693540   -1.214688
     76          1           0        4.570758    0.054097   -0.455368
     77          1           0        5.680072   -0.342837   -1.783220
 ---------------------------------------------------------------------

 SCF Done:  E(RM062X) =  -1991.37588134     A.U. after   15 cycles

 The electronic state is 1-A.
 Alpha  occ. eigenvalues --  -90.10328 -19.63611 -19.60073 -19.58378 -19.58298
 Alpha  occ. eigenvalues --  -19.57849 -14.84807 -14.80398 -14.69311 -10.65977
 Alpha  occ. eigenvalues --  -10.63221 -10.62456 -10.61714 -10.59287 -10.59023
 Alpha  occ. eigenvalues --  -10.58834 -10.57829 -10.57022 -10.56782 -10.56768
 Alpha  occ. eigenvalues --  -10.55897 -10.55663 -10.55642 -10.55099 -10.55027
 Alpha  occ. eigenvalues --  -10.54930 -10.54635 -10.54531 -10.54447 -10.53948
 Alpha  occ. eigenvalues --  -10.53714 -10.53647 -10.53633 -10.53239 -10.53011
 Alpha  occ. eigenvalues --  -10.52647  -8.41273  -6.33509  -6.33421  -6.33344
 Alpha  occ. eigenvalues --   -1.19236  -1.17770  -1.12944  -1.10065  -1.09557
 Alpha  occ. eigenvalues --   -1.09032  -1.06088  -0.97764  -0.95372  -0.94787
 Alpha  occ. eigenvalues --   -0.92271  -0.89831  -0.88587  -0.88474  -0.85033
 Alpha  occ. eigenvalues --   -0.84778  -0.83785  -0.83584  -0.83320  -0.80009
 Alpha  occ. eigenvalues --   -0.79513  -0.76314  -0.75610  -0.74446  -0.71010
 Alpha  occ. eigenvalues --   -0.70412  -0.69448  -0.68645  -0.68350  -0.68115
 Alpha  occ. eigenvalues --   -0.65996  -0.64812  -0.63923  -0.63533  -0.61683
 Alpha  occ. eigenvalues --   -0.60321  -0.59432  -0.59104  -0.58353  -0.56232
 Alpha  occ. eigenvalues --   -0.55891  -0.55318  -0.55230  -0.54705  -0.53922
 Alpha  occ. eigenvalues --   -0.53513  -0.53063  -0.52636  -0.51831  -0.51598
 Alpha  occ. eigenvalues --   -0.51103  -0.50946  -0.50658  -0.49959  -0.49871
 Alpha  occ. eigenvalues --   -0.49802  -0.49520  -0.48759  -0.48318  -0.48053
 Alpha  occ. eigenvalues --   -0.47493  -0.47273  -0.47100  -0.46974  -0.45811
 Alpha  occ. eigenvalues --   -0.45485  -0.45170  -0.44052  -0.43823  -0.43513
 Alpha  occ. eigenvalues --   -0.43237  -0.42837  -0.42120  -0.41800  -0.41733
 Alpha  occ. eigenvalues --   -0.41277  -0.40912  -0.40502  -0.39891  -0.39734
 Alpha  occ. eigenvalues --   -0.39464  -0.39402  -0.39219  -0.38437  -0.38114
 Alpha  occ. eigenvalues --   -0.37492  -0.36329  -0.35813  -0.35399  -0.35036
 Alpha  occ. eigenvalues --   -0.34153  -0.32932  -0.31925  -0.31724  -0.30746
 Alpha  occ. eigenvalues --   -0.30000  -0.28510  -0.28322  -0.27207  -0.25463
 Alpha virt. eigenvalues --   -0.01100   0.00695   0.03112   0.03701   0.08972
 Alpha virt. eigenvalues --    0.10131   0.10950   0.11746   0.12973   0.13446
 Alpha virt. eigenvalues --    0.13743   0.14344   0.15064   0.15394   0.15860

 Mulliken charges:
               1
     1  C   -0.303737
     2  C   -0.304956
     3  C   -0.309348
     4  C   -0.068494
     5  C    0.072628
     6  C   -0.305111
     7  H    0.167352
     8  H    0.162021
     9  H    0.159564
    10  H    0.144379
    11  H    0.157668
    12  H    0.207524
    13  H    0.141194
    14  H    0.184968
    15  H    0.149873
    16  H    0.149841
    17  N   -0.425071
    18  C    0.096364
    19  C    0.098661
    20  C   -0.226484
    21  H    0.204394
    22  C   -0.228625
    23  H    0.255637
    24  C    0.425914
    25  H    0.187527
    26  H    0.207958
    27  N   -0.524821
    28  C   -0.159321
    29  H    0.177766
    30  H    0.197984
    31  C   -0.145037
    32  H    0.169327
    33  H    0.193751
    34  N   -0.786970
    35  S    1.243839
    36  O   -0.631685
    37  O   -0.663801
    38  C    0.052636
    39  C   -0.178904
    40  C   -0.188777
    41  C   -0.170132
    42  C   -0.160490
    43  C   -0.199351
    44  H    0.204409
    45  H    0.139961
    46  H    0.157203
    47  H    0.162429
    48  H    0.159204
    49  O   -0.718822
    50  H    0.489067
    51  C    0.677205
    52  O   -0.522876
    53  O   -0.646718
    54  H    0.478770
    55  C   -0.376592
    56  H    0.198248
    57  H    0.169352
    58  C   -0.060665
    59  H    0.122710
    60  H    0.136190
    61  C   -0.668661
    62  H    0.238017
    63  H    0.183945
    64  H    0.205127
    65  C   -0.292957
    66  H    0.148369
    67  H    0.163587
    68  C   -0.480606
    69  H    0.160471
    70  H    0.159233
    71  H    0.152494
    72  C   -0.334883
    73  H    0.183839
    74  H    0.169150
    75  C   -0.335128
    76  H    0.178837
    77  H    0.172437
 Sum of Mulliken charges =  -0.00000

 Dipole moment (field-independent basis, Debye):
    X=              1.7985    Y=              0.3250    Z=             -6.7607  Tot=              7.0034
 Quadrupole moment (field-independent basis, Debye-Ang):
   XX=           -201.1406   YY=           -222.8687   ZZ=           -222.8063
   XY=            -11.6229   XZ=              1.7328   YZ=             13.4852

 Normal termination of Gaussian 16 at Thu Feb  7 20:40:22 2019.
