 Gaussian 16, Revision A.03,
 Gaussian 16:  ES64L-G16RevA.03 25-Dec-2016

 ------------------------------------------
 #p M062X/6-31G* em=gd3 force int=ultrafine
 ------------------------------------------

 -----
 Title
 -----
 Symbolic Z-matrix:
 Charge =  0 Multiplicity = 1

                         Standard orientation:
 ---------------------------------------------------------------------
 Center     Atomic      Atomic             Coordinates (Angstroms)
 Number     Number       Type             X           Y           Z
 ---------------------------------------------------------------------
      1          6           0       -4.865615    0.255464   -0.465833
      2          6           0       -4.974023   -1.031906   -1.288395
      3          6           0       -3.611202   -1.420715   -1.874980
      4          6           0       -2.610145   -1.587996   -0.735842
      5          6           0       -2.455377   -0.271046    0.077328
      6          6           0       -3.824739    0.122862    0.650182
      7          1           0       -3.681218   -2.341362   -2.465549
      8          1           0       -5.339126   -1.846854   -0.649792
      9          1           0       -5.700096   -0.911099   -2.099224
     10          1           0       -4.567590    1.078255   -1.131139
     11          1           0       -5.843612    0.519018   -0.049271
     12          1           0       -2.951334   -2.379541   -0.061705
     13          1           0       -2.199985    0.497318   -0.668423
     14          1           0       -4.142224   -0.625248    1.387232
     15          1           0       -3.702802    1.079384    1.172395
     16          1           0       -3.290407   -0.613434   -2.547711
     17          7           0       -1.256295   -1.997565   -1.180299
     18          6           0       -0.621109   -1.327129   -2.169944
     19          6           0       -0.519111   -2.752595   -0.331500
     20          6           0        0.733797   -1.375975   -2.332114
     21          1           0       -1.246525   -0.722853   -2.814302
     22          6           0        0.840039   -2.848407   -0.428238
     23          1           0       -1.068648   -3.237397    0.468373
     24          6           0        1.536339   -2.079622   -1.391200
     25          1           0        1.181405   -0.817697   -3.143876
     26          1           0        1.358470   -3.423181    0.326242
     27          7           0        2.875021   -2.004103   -1.395514
     28          6           0        3.648623   -2.490148   -0.245002
     29          1           0        3.575290   -3.578032   -0.159645
     30          1           0        3.253400   -2.031542    0.672206
     31          6           0        3.592904   -0.938447   -2.113616
     32          1           0        3.858794   -1.275887   -3.122557
     33          1           0        2.963863   -0.046709   -2.177520
     34          7           0       -1.329335   -0.289487    0.982539
     35         16           0       -1.315463   -1.189085    2.282773
     36          8           0       -2.375402   -2.220462    2.308314
     37          8           0        0.064350   -1.704413    2.495981
     38          6           0       -0.891282    2.822031   -0.123094
     39          6           0       -0.266278    2.144467   -1.177794
     40          6           0       -0.880009    2.092285   -2.427798
     41          6           0       -2.132635    2.673446   -2.631594
     42          6           0       -2.770990    3.315447   -1.573632
     43          6           0       -2.146857    3.388695   -0.330906
     44          1           0        0.677419    1.630006   -1.003342
     45          1           0       -0.378981    1.591496   -3.253640
     46          1           0       -2.609214    2.626531   -3.606256
     47          1           0       -3.752357    3.759481   -1.710324
     48          1           0       -2.641762    3.884421    0.500766
     49          8           0        0.288531    1.712262    1.684825
     50          1           0       -0.295602    0.967067    1.330727
     51          6           0        2.440246    0.594626    1.168397
     52          8           0        2.092328    0.181874    0.077137
     53          8           0        2.278599   -0.085943    2.293712
     54          1           0        1.546503   -0.751817    2.192645
     55          6           0        3.172971    1.901607    1.367770
     56          1           0        2.637998    2.441708    2.155522
     57          1           0        4.172963    1.679271    1.764817
     58          6           0       -0.242718    2.923365    1.240723
     59          1           0       -0.980237    3.326831    1.953189
     60          1           0        0.586724    3.646288    1.203547
     61          6           0       -1.578773   -0.083232    3.667964
     62          1           0       -0.807454    0.687665    3.597388
     63          1           0       -2.572737    0.358951    3.576033
     64          1           0       -1.486320   -0.645950    4.597719
     65          6           0        3.266909    2.732482    0.091862
     66          1           0        3.671561    2.115392   -0.719173
     67          1           0        2.258215    3.017209   -0.228865
     68          6           0        4.126476    3.979873    0.277260
     69          1           0        4.214336    4.546043   -0.654585
     70          1           0        3.699381    4.645336    1.034909
     71          1           0        5.137307    3.712428    0.603928
     72          6           0        5.067230   -2.011354   -0.539602
     73          1           0        5.660045   -1.911946    0.371944
     74          1           0        5.573207   -2.716863   -1.206330
     75          6           0        4.830622   -0.676609   -1.249805
     76          1           0        4.588199    0.093732   -0.512723
     77          1           0        5.685823   -0.338328   -1.838427
 ---------------------------------------------------------------------

 SCF Done:  E(RM062X) =  -1991.38420148     A.U. after   15 cycles

 The electronic state is 1-A.
 Alpha  occ. eigenvalues --  -90.10256 -19.63601 -19.60171 -19.58830 -19.58371
 Alpha  occ. eigenvalues --  -19.58298 -14.84790 -14.80431 -14.69293 -10.65728
 Alpha  occ. eigenvalues --  -10.63210 -10.62426 -10.61573 -10.59212 -10.59082
 Alpha  occ. eigenvalues --  -10.58919 -10.57826 -10.57371 -10.56768 -10.56709
 Alpha  occ. eigenvalues --  -10.55947 -10.55699 -10.55612 -10.55060 -10.54993
 Alpha  occ. eigenvalues --  -10.54919 -10.54644 -10.54604 -10.54512 -10.53943
 Alpha  occ. eigenvalues --  -10.53594 -10.53445 -10.53409 -10.53399 -10.52852
 Alpha  occ. eigenvalues --  -10.52626  -8.41211  -6.33448  -6.33357  -6.33278
 Alpha  occ. eigenvalues --   -1.19334  -1.17731  -1.12922  -1.10128  -1.10007
 Alpha  occ. eigenvalues --   -1.09077  -1.06018  -0.97532  -0.95347  -0.94739
 Alpha  occ. eigenvalues --   -0.92188  -0.89819  -0.88557  -0.88310  -0.85087
 Alpha  occ. eigenvalues --   -0.84847  -0.83698  -0.83535  -0.83286  -0.80046
 Alpha  occ. eigenvalues --   -0.79367  -0.76315  -0.75613  -0.74665  -0.70943
 Alpha  occ. eigenvalues --   -0.70257  -0.69318  -0.68665  -0.68342  -0.68089
 Alpha  occ. eigenvalues --   -0.65969  -0.64757  -0.63920  -0.63509  -0.61604
 Alpha  occ. eigenvalues --   -0.60267  -0.59368  -0.59092  -0.58354  -0.56157
 Alpha  occ. eigenvalues --   -0.55632  -0.55279  -0.55156  -0.54379  -0.53869
 Alpha  occ. eigenvalues --   -0.53458  -0.53051  -0.52606  -0.51872  -0.51650
 Alpha  occ. eigenvalues --   -0.51074  -0.50952  -0.50619  -0.50027  -0.49828
 Alpha  occ. eigenvalues --   -0.49697  -0.49524  -0.48776  -0.48313  -0.48018
 Alpha  occ. eigenvalues --   -0.47780  -0.47222  -0.47072  -0.46983  -0.45831
 Alpha  occ. eigenvalues --   -0.45570  -0.45191  -0.43955  -0.43693  -0.43467
 Alpha  occ. eigenvalues --   -0.42920  -0.42819  -0.42157  -0.42047  -0.41833
 Alpha  occ. eigenvalues --   -0.41205  -0.40924  -0.40518  -0.39877  -0.39627
 Alpha  occ. eigenvalues --   -0.39379  -0.39321  -0.39042  -0.38403  -0.38061
 Alpha  occ. eigenvalues --   -0.37374  -0.36265  -0.35822  -0.35334  -0.35181
 Alpha  occ. eigenvalues --   -0.34268  -0.32998  -0.31985  -0.31669  -0.31327
 Alpha  occ. eigenvalues --   -0.29947  -0.28818  -0.28331  -0.27329  -0.25347
 Alpha virt. eigenvalues --   -0.01059   0.00681   0.03135   0.03705   0.08861
 Alpha virt. eigenvalues --    0.10167   0.10958   0.11793   0.12960   0.13525
 Alpha virt. eigenvalues --    0.13802   0.14313   0.14986   0.15470   0.15861

 Mulliken charges:
               1
     1  C   -0.303938
     2  C   -0.304283
     3  C   -0.309846
     4  C   -0.071940
     5  C    0.067533
     6  C   -0.304772
     7  H    0.166943
     8  H    0.161309
     9  H    0.159255
    10  H    0.145096
    11  H    0.157021
    12  H    0.209827
    13  H    0.140462
    14  H    0.180752
    15  H    0.150265
    16  H    0.149873
    17  N   -0.424080
    18  C    0.097433
    19  C    0.089229
    20  C   -0.226364
    21  H    0.204575
    22  C   -0.227077
    23  H    0.260504
    24  C    0.426798
    25  H    0.187532
    26  H    0.207766
    27  N   -0.526802
    28  C   -0.158966
    29  H    0.178186
    30  H    0.198090
    31  C   -0.145792
    32  H    0.169557
    33  H    0.194075
    34  N   -0.766616
    35  S    1.247110
    36  O   -0.639995
    37  O   -0.668853
    38  C    0.051017
    39  C   -0.176189
    40  C   -0.188666
    41  C   -0.169498
    42  C   -0.160750
    43  C   -0.199717
    44  H    0.204367
    45  H    0.139642
    46  H    0.157073
    47  H    0.162341
    48  H    0.158434
    49  O   -0.717404
    50  H    0.485718
    51  C    0.661560
    52  O   -0.520920
    53  O   -0.645945
    54  H    0.483559
    55  C   -0.373585
    56  H    0.202646
    57  H    0.166408
    58  C   -0.063147
    59  H    0.126818
    60  H    0.145646
    61  C   -0.663147
    62  H    0.228963
    63  H    0.185644
    64  H    0.205946
    65  C   -0.290272
    66  H    0.146442
    67  H    0.162119
    68  C   -0.480494
    69  H    0.159586
    70  H    0.158634
    71  H    0.151919
    72  C   -0.336305
    73  H    0.184371
    74  H    0.169675
    75  C   -0.335646
    76  H    0.180513
    77  H    0.172774
 Sum of Mulliken charges =  -0.00000

 Dipole moment (field-independent basis, Debye):
    X=              1.6106    Y=             -0.0132    Z=             -6.7179  Tot=              6.9083
 Quadrupole moment (field-independent basis, Debye-Ang):
   XX=           -199.8470   YY=           -222.4549   ZZ=           -222.7755
   XY=            -11.6055   XZ=              0.5347   YZ=             12.9266

 Normal termination of Gaussian 16 at Thu Feb  7 22:11:07 2019.
