 Gaussian 16, Revision A.03,
 Gaussian 16:  ES64L-G16RevA.03 25-Dec-2016

 ------------------------------------------
 #p M062X/6-31G* em=gd3 force int=ultrafine
 ------------------------------------------

 -----
 Title
 -----
 Symbolic Z-matrix:
 Charge =  0 Multiplicity = 1

                         Standard orientation:
 ---------------------------------------------------------------------
 Center     Atomic      Atomic             Coordinates (Angstroms)
 Number     Number       Type             X           Y           Z
 ---------------------------------------------------------------------
      1          6           0       -4.843488    0.444357   -0.515366
      2          6           0       -4.992855   -0.827701   -1.354952
      3          6           0       -3.642113   -1.251692   -1.944103
      4          6           0       -2.652355   -1.480936   -0.805883
      5          6           0       -2.467591   -0.192348    0.034736
      6          6           0       -3.817129    0.259133    0.606612
      7          1           0       -3.738013   -2.158600   -2.551028
      8          1           0       -5.386724   -1.639330   -0.729159
      9          1           0       -5.712089   -0.671006   -2.165141
     10          1           0       -4.515410    1.266682   -1.165972
     11          1           0       -5.812028    0.733753   -0.094788
     12          1           0       -3.029882   -2.274258   -0.152866
     13          1           0       -2.132179    0.586670   -0.662922
     14          1           0       -4.174272   -0.481996    1.330564
     15          1           0       -3.657837    1.204740    1.137716
     16          1           0       -3.287933   -0.443645   -2.598324
     17          7           0       -1.313006   -1.928367   -1.249972
     18          6           0       -0.643111   -1.249644   -2.215374
     19          6           0       -0.606843   -2.733569   -0.416204
     20          6           0        0.709725   -1.329559   -2.358187
     21          1           0       -1.241694   -0.611759   -2.852711
     22          6           0        0.748367   -2.855009   -0.487934
     23          1           0       -1.182582   -3.238084    0.352078
     24          6           0        1.481974   -2.069694   -1.416259
     25          1           0        1.184821   -0.760812   -3.146502
     26          1           0        1.241933   -3.468573    0.252506
     27          7           0        2.813835   -2.024259   -1.396153
     28          6           0        3.560853   -2.541355   -0.239579
     29          1           0        3.440855   -3.624892   -0.153722
     30          1           0        3.180262   -2.049095    0.666415
     31          6           0        3.567611   -0.961634   -2.084478
     32          1           0        3.831444   -1.287261   -3.097944
     33          1           0        2.962616   -0.052825   -2.123832
     34          7           0       -1.367552   -0.322631    0.974721
     35         16           0       -1.407278   -1.221183    2.326102
     36          8           0       -2.591699   -2.086427    2.280887
     37          8           0       -0.100790   -1.873219    2.491068
     38          6           0       -0.662799    2.743328   -0.066517
     39          6           0       -0.113734    2.100666   -1.185194
     40          6           0       -0.775067    2.145384   -2.411572
     41          6           0       -2.007012    2.790680   -2.533965
     42          6           0       -2.568776    3.407411   -1.418041
     43          6           0       -1.893700    3.385719   -0.198852
     44          1           0        0.810412    1.535614   -1.066369
     45          1           0       -0.327650    1.671137   -3.283461
     46          1           0       -2.522293    2.818533   -3.489737
     47          1           0       -3.530257    3.906965   -1.494327
     48          1           0       -2.331751    3.864815    0.674146
     49          8           0        0.450297    1.413468    1.623166
     50          1           0       -0.569756    0.420077    1.052887
     51          6           0        2.203702    0.657565    1.180769
     52          8           0        2.034285    0.159115    0.058860
     53          8           0        2.222675   -0.132471    2.290599
     54          1           0        1.533265   -0.817538    2.175930
     55          6           0        3.082880    1.880053    1.387543
     56          1           0        2.690945    2.488915    2.208611
     57          1           0        4.050424    1.486684    1.731546
     58          6           0        0.037477    2.683261    1.284500
     59          1           0       -0.662677    3.085311    2.041822
     60          1           0        0.885236    3.396147    1.269456
     61          6           0       -1.530570   -0.045596    3.658103
     62          1           0       -0.689058    0.640464    3.511710
     63          1           0       -2.486751    0.473692    3.575625
     64          1           0       -1.454921   -0.586445    4.602575
     65          6           0        3.298426    2.705975    0.122683
     66          1           0        3.676919    2.049546   -0.669720
     67          1           0        2.343138    3.093939   -0.248244
     68          6           0        4.269318    3.861308    0.355636
     69          1           0        4.446829    4.430790   -0.561682
     70          1           0        3.881052    4.554207    1.110069
     71          1           0        5.236554    3.492558    0.715043
     72          6           0        4.995982   -2.118588   -0.532686
     73          1           0        5.599011   -2.069338    0.375917
     74          1           0        5.465542   -2.825759   -1.224984
     75          6           0        4.799521   -0.756053   -1.199358
     76          1           0        4.549340   -0.013040   -0.436852
     77          1           0        5.668373   -0.413747   -1.765225
 ---------------------------------------------------------------------

 SCF Done:  E(RM062X) =  -1991.35671749     A.U. after   15 cycles

 The electronic state is 1-A.
 Alpha  occ. eigenvalues --  -90.13680 -19.61550 -19.61263 -19.60276 -19.55508
 Alpha  occ. eigenvalues --  -19.54469 -14.85320 -14.80456 -14.74587 -10.63998
 Alpha  occ. eigenvalues --  -10.63463 -10.62792 -10.62265 -10.60735 -10.59089
 Alpha  occ. eigenvalues --  -10.58503 -10.58409 -10.58017 -10.57207 -10.56586
 Alpha  occ. eigenvalues --  -10.55530 -10.55524 -10.55364 -10.55176 -10.54888
 Alpha  occ. eigenvalues --  -10.54639 -10.54617 -10.54542 -10.54503 -10.54141
 Alpha  occ. eigenvalues --  -10.53907 -10.53510 -10.52951 -10.51872 -10.51697
 Alpha  occ. eigenvalues --  -10.51244  -8.44681  -6.36902  -6.36847  -6.36739
 Alpha  occ. eigenvalues --   -1.21471  -1.15248  -1.13542  -1.09713  -1.09314
 Alpha  occ. eigenvalues --   -1.05477  -1.03770  -1.00861  -0.95673  -0.94589
 Alpha  occ. eigenvalues --   -0.93429  -0.90278  -0.88788  -0.86534  -0.85765
 Alpha  occ. eigenvalues --   -0.84624  -0.84353  -0.83841  -0.82852  -0.82344
 Alpha  occ. eigenvalues --   -0.77376  -0.76719  -0.75834  -0.72588  -0.72099
 Alpha  occ. eigenvalues --   -0.71525  -0.68422  -0.68289  -0.67752  -0.67168
 Alpha  occ. eigenvalues --   -0.66659  -0.64999  -0.64274  -0.63358  -0.61016
 Alpha  occ. eigenvalues --   -0.60409  -0.60055  -0.59007  -0.58074  -0.57418
 Alpha  occ. eigenvalues --   -0.56882  -0.56378  -0.55178  -0.54386  -0.53819
 Alpha  occ. eigenvalues --   -0.53381  -0.52464  -0.52424  -0.52198  -0.51721
 Alpha  occ. eigenvalues --   -0.51476  -0.51236  -0.50848  -0.50176  -0.49881
 Alpha  occ. eigenvalues --   -0.49552  -0.48759  -0.48375  -0.48128  -0.47929
 Alpha  occ. eigenvalues --   -0.47549  -0.47209  -0.47121  -0.46402  -0.46138
 Alpha  occ. eigenvalues --   -0.45453  -0.45045  -0.44663  -0.43725  -0.43261
 Alpha  occ. eigenvalues --   -0.42414  -0.42320  -0.41611  -0.41518  -0.41139
 Alpha  occ. eigenvalues --   -0.41052  -0.40471  -0.40005  -0.39941  -0.39573
 Alpha  occ. eigenvalues --   -0.39447  -0.38768  -0.38315  -0.38042  -0.37728
 Alpha  occ. eigenvalues --   -0.37601  -0.37326  -0.36900  -0.35967  -0.35449
 Alpha  occ. eigenvalues --   -0.34811  -0.34093  -0.32840  -0.30141  -0.29425
 Alpha  occ. eigenvalues --   -0.28754  -0.28412  -0.28043  -0.26120  -0.24734
 Alpha virt. eigenvalues --   -0.01462   0.00352   0.03654   0.04304   0.10215
 Alpha virt. eigenvalues --    0.10996   0.11511   0.11988   0.13281   0.13427
 Alpha virt. eigenvalues --    0.13975   0.14223   0.14752   0.15361   0.15387

 Mulliken charges:
               1
     1  C   -0.306882
     2  C   -0.307028
     3  C   -0.311617
     4  C   -0.064222
     5  C    0.068891
     6  C   -0.307144
     7  H    0.172921
     8  H    0.162491
     9  H    0.165233
    10  H    0.152562
    11  H    0.163155
    12  H    0.209149
    13  H    0.170740
    14  H    0.188517
    15  H    0.161104
    16  H    0.156671
    17  N   -0.432689
    18  C    0.088909
    19  C    0.089075
    20  C   -0.217957
    21  H    0.206013
    22  C   -0.225117
    23  H    0.249038
    24  C    0.437211
    25  H    0.192461
    26  H    0.209255
    27  N   -0.519975
    28  C   -0.161418
    29  H    0.172372
    30  H    0.209003
    31  C   -0.146742
    32  H    0.165759
    33  H    0.202057
    34  N   -0.818745
    35  S    1.242477
    36  O   -0.610850
    37  O   -0.613683
    38  C    0.056182
    39  C   -0.196979
    40  C   -0.190883
    41  C   -0.175489
    42  C   -0.162767
    43  C   -0.206530
    44  H    0.217860
    45  H    0.136048
    46  H    0.153228
    47  H    0.157405
    48  H    0.153828
    49  O   -0.673720
    50  H    0.454784
    51  C    0.677328
    52  O   -0.588404
    53  O   -0.665912
    54  H    0.456177
    55  C   -0.344154
    56  H    0.175325
    57  H    0.152831
    58  C   -0.042249
    59  H    0.100734
    60  H    0.122047
    61  C   -0.671017
    62  H    0.267240
    63  H    0.197862
    64  H    0.218043
    65  C   -0.289985
    66  H    0.141580
    67  H    0.156950
    68  C   -0.477581
    69  H    0.153124
    70  H    0.155080
    71  H    0.148577
    72  C   -0.334707
    73  H    0.184873
    74  H    0.164657
    75  C   -0.336698
    76  H    0.195088
    77  H    0.169227
 Sum of Mulliken charges =  -0.00000

 Dipole moment (field-independent basis, Debye):
    X=             -1.3813    Y=             -2.0557    Z=             -6.0672  Tot=              6.5532
 Quadrupole moment (field-independent basis, Debye-Ang):
   XX=           -202.9753   YY=           -225.1940   ZZ=           -219.2912
   XY=            -12.1871   XZ=             -2.8561   YZ=             10.4851

 Normal termination of Gaussian 16 at Thu Feb  7 19:05:25 2019.
