 Gaussian 16, Revision A.03,
 Gaussian 16:  ES64L-G16RevA.03 25-Dec-2016

 ------------------------------------------
 #p M062X/6-31G* em=gd3 force int=ultrafine
 ------------------------------------------

 -----
 Title
 -----
 Symbolic Z-matrix:
 Charge =  0 Multiplicity = 1

                         Standard orientation:
 ---------------------------------------------------------------------
 Center     Atomic      Atomic             Coordinates (Angstroms)
 Number     Number       Type             X           Y           Z
 ---------------------------------------------------------------------
      1          6           0       -4.858464    0.529681   -0.539825
      2          6           0       -5.032522   -0.753983   -1.356624
      3          6           0       -3.691954   -1.213733   -1.942286
      4          6           0       -2.702256   -1.442942   -0.804291
      5          6           0       -2.499041   -0.144124    0.012971
      6          6           0       -3.834357    0.344033    0.583009
      7          1           0       -3.806159   -2.128829   -2.532991
      8          1           0       -5.439013   -1.546705   -0.714924
      9          1           0       -5.751586   -0.598144   -2.166847
     10          1           0       -4.516687    1.334953   -1.204440
     11          1           0       -5.819901    0.843884   -0.121147
     12          1           0       -3.092341   -2.217763   -0.136240
     13          1           0       -2.142919    0.619199   -0.691037
     14          1           0       -4.203784   -0.377588    1.319657
     15          1           0       -3.653246    1.294010    1.098728
     16          1           0       -3.323371   -0.424776   -2.611579
     17          7           0       -1.372507   -1.918304   -1.241763
     18          6           0       -0.686152   -1.257504   -2.211958
     19          6           0       -0.679757   -2.728133   -0.397991
     20          6           0        0.664478   -1.355472   -2.345094
     21          1           0       -1.273244   -0.620171   -2.860598
     22          6           0        0.672530   -2.864887   -0.458350
     23          1           0       -1.266474   -3.220755    0.369596
     24          6           0        1.423535   -2.091580   -1.386269
     25          1           0        1.152819   -0.801554   -3.135775
     26          1           0        1.154983   -3.479567    0.288302
     27          7           0        2.751055   -2.067453   -1.361244
     28          6           0        3.487585   -2.582637   -0.195948
     29          1           0        3.342133   -3.661750   -0.092693
     30          1           0        3.119721   -2.056055    0.695995
     31          6           0        3.524575   -1.026198   -2.059825
     32          1           0        3.782115   -1.368241   -3.070016
     33          1           0        2.934273   -0.108278   -2.099785
     34          7           0       -1.415801   -0.271326    0.971437
     35         16           0       -1.437214   -1.154024    2.342375
     36          8           0       -2.669608   -1.945095    2.327306
     37          8           0       -0.163701   -1.861813    2.476077
     38          6           0       -0.530281    2.680077   -0.066394
     39          6           0       -0.036892    2.071684   -1.228562
     40          6           0       -0.756427    2.153205   -2.420355
     41          6           0       -1.982845    2.815836   -2.471828
     42          6           0       -2.486218    3.408791   -1.315383
     43          6           0       -1.759981    3.341741   -0.126723
     44          1           0        0.886824    1.496782   -1.155679
     45          1           0       -0.351519    1.696946   -3.321662
     46          1           0       -2.538153    2.876053   -3.403729
     47          1           0       -3.441551    3.925773   -1.339007
     48          1           0       -2.158089    3.808924    0.771913
     49          8           0        0.673713    1.364425    1.651538
     50          1           0       -0.535552    0.261829    0.864131
     51          6           0        2.049552    0.735925    1.180655
     52          8           0        1.908216    0.180937    0.028574
     53          8           0        2.261983   -0.150279    2.258260
     54          1           0        1.570233   -0.831092    2.171252
     55          6           0        3.126280    1.830169    1.314202
     56          1           0        2.888297    2.495220    2.153942
     57          1           0        4.050896    1.309846    1.596275
     58          6           0        0.242581    2.632799    1.247384
     59          1           0       -0.424325    3.016023    2.035310
     60          1           0        1.083101    3.339836    1.195504
     61          6           0       -1.477313    0.045559    3.655175
     62          1           0       -0.592065    0.672359    3.508181
     63          1           0       -2.400098    0.621383    3.570363
     64          1           0       -1.433249   -0.491333    4.604061
     65          6           0        3.378738    2.623872    0.034448
     66          1           0        3.693518    1.929677   -0.753017
     67          1           0        2.451435    3.076470   -0.336452
     68          6           0        4.431386    3.711525    0.234870
     69          1           0        4.633270    4.257958   -0.691650
     70          1           0        4.103819    4.437696    0.987361
     71          1           0        5.376029    3.281392    0.586034
     72          6           0        4.930741   -2.198340   -0.499869
     73          1           0        5.537742   -2.154213    0.406291
     74          1           0        5.381929   -2.921930   -1.188166
     75          6           0        4.757610   -0.836814   -1.174068
     76          1           0        4.507967   -0.091259   -0.413883
     77          1           0        5.632821   -0.508953   -1.739068
 ---------------------------------------------------------------------

 SCF Done:  E(RM062X) =  -1991.35561579     A.U. after   15 cycles

 The electronic state is 1-A.
 Alpha  occ. eigenvalues --  -90.14738 -19.62375 -19.62078 -19.58581 -19.57068
 Alpha  occ. eigenvalues --  -19.50685 -14.85176 -14.80034 -14.76483 -10.63151
 Alpha  occ. eigenvalues --  -10.62605 -10.62248 -10.62121 -10.61079 -10.59869
 Alpha  occ. eigenvalues --  -10.57761 -10.57752 -10.57626 -10.57037 -10.56965
 Alpha  occ. eigenvalues --  -10.56884 -10.56367 -10.55871 -10.55125 -10.55084
 Alpha  occ. eigenvalues --  -10.55045 -10.54888 -10.54690 -10.54685 -10.54651
 Alpha  occ. eigenvalues --  -10.54461 -10.54044 -10.53126 -10.51102 -10.50994
 Alpha  occ. eigenvalues --  -10.49583  -8.45710  -6.37937  -6.37886  -6.37759
 Alpha  occ. eigenvalues --   -1.22527  -1.13450  -1.12833  -1.10732  -1.08869
 Alpha  occ. eigenvalues --   -1.05975  -1.02427  -1.00070  -0.95827  -0.95222
 Alpha  occ. eigenvalues --   -0.93467  -0.90113  -0.88565  -0.86531  -0.85372
 Alpha  occ. eigenvalues --   -0.84925  -0.84851  -0.83705  -0.83316  -0.83058
 Alpha  occ. eigenvalues --   -0.76562  -0.75996  -0.75548  -0.74228  -0.73256
 Alpha  occ. eigenvalues --   -0.71754  -0.68233  -0.68140  -0.67747  -0.67487
 Alpha  occ. eigenvalues --   -0.66427  -0.65489  -0.64880  -0.63332  -0.60521
 Alpha  occ. eigenvalues --   -0.60382  -0.59952  -0.59412  -0.57944  -0.57687
 Alpha  occ. eigenvalues --   -0.57148  -0.56386  -0.55660  -0.55087  -0.54385
 Alpha  occ. eigenvalues --   -0.53557  -0.53073  -0.52669  -0.52464  -0.52174
 Alpha  occ. eigenvalues --   -0.51682  -0.50808  -0.50130  -0.49920  -0.49360
 Alpha  occ. eigenvalues --   -0.49243  -0.48934  -0.48496  -0.48191  -0.48018
 Alpha  occ. eigenvalues --   -0.47719  -0.47637  -0.47163  -0.46179  -0.45814
 Alpha  occ. eigenvalues --   -0.45307  -0.45173  -0.44391  -0.44032  -0.43189
 Alpha  occ. eigenvalues --   -0.42468  -0.42332  -0.41187  -0.40868  -0.40752
 Alpha  occ. eigenvalues --   -0.40671  -0.40396  -0.40134  -0.39837  -0.39414
 Alpha  occ. eigenvalues --   -0.39138  -0.38897  -0.38700  -0.38315  -0.37785
 Alpha  occ. eigenvalues --   -0.37427  -0.36511  -0.36441  -0.36053  -0.35027
 Alpha  occ. eigenvalues --   -0.34551  -0.34291  -0.31800  -0.31335  -0.30023
 Alpha  occ. eigenvalues --   -0.29289  -0.28823  -0.27766  -0.24323  -0.24004
 Alpha virt. eigenvalues --   -0.01226   0.00585   0.03203   0.03565   0.10156
 Alpha virt. eigenvalues --    0.10590   0.11341   0.12566   0.13168   0.13322
 Alpha virt. eigenvalues --    0.14145   0.14427   0.15059   0.15527   0.15541

 Mulliken charges:
               1
     1  C   -0.306489
     2  C   -0.307795
     3  C   -0.311180
     4  C   -0.060400
     5  C    0.065029
     6  C   -0.306842
     7  H    0.175491
     8  H    0.163265
     9  H    0.166768
    10  H    0.151286
    11  H    0.164930
    12  H    0.207307
    13  H    0.174607
    14  H    0.192596
    15  H    0.160598
    16  H    0.156393
    17  N   -0.437358
    18  C    0.079556
    19  C    0.080301
    20  C   -0.209772
    21  H    0.202835
    22  C   -0.220934
    23  H    0.243521
    24  C    0.449234
    25  H    0.192019
    26  H    0.209701
    27  N   -0.518253
    28  C   -0.165191
    29  H    0.167009
    30  H    0.220998
    31  C   -0.145384
    32  H    0.160330
    33  H    0.205418
    34  N   -0.811002
    35  S    1.238021
    36  O   -0.603485
    37  O   -0.591467
    38  C    0.049588
    39  C   -0.196705
    40  C   -0.192583
    41  C   -0.172414
    42  C   -0.165319
    43  C   -0.205143
    44  H    0.234484
    45  H    0.141585
    46  H    0.156263
    47  H    0.159862
    48  H    0.154293
    49  O   -0.599482
    50  H    0.450397
    51  C    0.715352
    52  O   -0.688757
    53  O   -0.702430
    54  H    0.432391
    55  C   -0.340178
    56  H    0.143768
    57  H    0.150882
    58  C   -0.080328
    59  H    0.130841
    60  H    0.156386
    61  C   -0.666331
    62  H    0.267612
    63  H    0.200328
    64  H    0.222974
    65  C   -0.285142
    66  H    0.142710
    67  H    0.140410
    68  C   -0.474968
    69  H    0.148266
    70  H    0.149199
    71  H    0.148583
    72  C   -0.334067
    73  H    0.184358
    74  H    0.159959
    75  C   -0.338310
    76  H    0.205206
    77  H    0.164798
 Sum of Mulliken charges =  -0.00000

 Dipole moment (field-independent basis, Debye):
    X=             -3.5768    Y=             -1.5298    Z=             -5.7080  Tot=              6.9076
 Quadrupole moment (field-independent basis, Debye-Ang):
   XX=           -208.5922   YY=           -222.4980   ZZ=           -218.2405
   XY=            -13.4260   XZ=             -4.1367   YZ=             10.7861

 Normal termination of Gaussian 16 at Thu Feb  7 09:54:44 2019.
