 Gaussian 16, Revision A.03,
 Gaussian 16:  ES64L-G16RevA.03 25-Dec-2016

 ------------------------------------------
 #p M062X/6-31G* em=gd3 force int=ultrafine
 ------------------------------------------

 -----
 Title
 -----
 Symbolic Z-matrix:
 Charge =  0 Multiplicity = 1

                         Standard orientation:
 ---------------------------------------------------------------------
 Center     Atomic      Atomic             Coordinates (Angstroms)
 Number     Number       Type             X           Y           Z
 ---------------------------------------------------------------------
      1          6           0       -4.869282    0.076846   -0.427408
      2          6           0       -4.911142   -1.209443   -1.257975
      3          6           0       -3.531024   -1.523439   -1.848010
      4          6           0       -2.525130   -1.644720   -0.707911
      5          6           0       -2.426943   -0.319331    0.100238
      6          6           0       -3.813742   -0.001322    0.679799
      7          1           0       -3.553179   -2.446015   -2.439443
      8          1           0       -5.231029   -2.046862   -0.624048
      9          1           0       -5.644433   -1.122109   -2.066466
     10          1           0       -4.625588    0.920016   -1.089063
     11          1           0       -5.857224    0.279396   -0.000175
     12          1           0       -2.838293   -2.444180   -0.031120
     13          1           0       -2.213890    0.459965   -0.646579
     14          1           0       -4.083901   -0.771179    1.413822
     15          1           0       -3.743510    0.957272    1.207985
     16          1           0       -3.251280   -0.699263   -2.518696
     17          7           0       -1.160050   -2.011817   -1.150839
     18          6           0       -0.548267   -1.329173   -2.145708
     19          6           0       -0.405259   -2.764161   -0.315755
     20          6           0        0.805201   -1.357844   -2.323182
     21          1           0       -1.191734   -0.734960   -2.781656
     22          6           0        0.953751   -2.838091   -0.426890
     23          1           0       -0.940656   -3.261574    0.485825
     24          6           0        1.626568   -2.051806   -1.392117
     25          1           0        1.236484   -0.795343   -3.140726
     26          1           0        1.490465   -3.413323    0.314417
     27          7           0        2.962866   -1.954349   -1.409434
     28          6           0        3.760547   -2.448261   -0.280134
     29          1           0        3.707265   -3.539073   -0.215620
     30          1           0        3.368930   -2.015076    0.651012
     31          6           0        3.655525   -0.875729   -2.130349
     32          1           0        3.914511   -1.204422   -3.144320
     33          1           0        3.011490    0.006064   -2.181912
     34          7           0       -1.302167   -0.276710    1.012058
     35         16           0       -1.263582   -1.216552    2.280535
     36          8           0       -2.255923   -2.314215    2.252550
     37          8           0        0.135348   -1.665611    2.519854
     38          6           0       -1.122070    2.858577   -0.171751
     39          6           0       -0.399096    2.187110   -1.163570
     40          6           0       -0.929641    2.062302   -2.445733
     41          6           0       -2.195559    2.566802   -2.744496
     42          6           0       -2.928196    3.212163   -1.750496
     43          6           0       -2.388094    3.358843   -0.474877
     44          1           0        0.554207    1.726441   -0.910366
     45          1           0       -0.351921    1.560842   -3.218966
     46          1           0       -2.609234    2.459368   -3.742871
     47          1           0       -3.920000    3.599460   -1.965067
     48          1           0       -2.961121    3.858321    0.303419
     49          8           0        0.222975    1.924314    1.620516
     50          1           0       -0.281763    1.100826    1.353111
     51          6           0        2.437703    0.654129    1.224367
     52          8           0        2.123201    0.213178    0.132065
     53          8           0        2.204208    0.027507    2.365455
     54          1           0        1.507451   -0.676613    2.249623
     55          6           0        3.193064    1.948320    1.416121
     56          1           0        2.715692    2.475118    2.247512
     57          1           0        4.214678    1.702514    1.739731
     58          6           0       -0.547409    3.020434    1.220339
     59          1           0       -1.371673    3.223910    1.924279
     60          1           0        0.111597    3.900351    1.243755
     61          6           0       -1.641926   -0.190320    3.697979
     62          1           0       -0.941161    0.647969    3.681261
     63          1           0       -2.669734    0.163980    3.597646
     64          1           0       -1.522553   -0.782599    4.606196
     65          6           0        3.208835    2.806043    0.157607
     66          1           0        3.634335    2.230921   -0.673801
     67          1           0        2.172883    3.025378   -0.124163
     68          6           0        3.985527    4.104806    0.350568
     69          1           0        3.995730    4.702176   -0.565697
     70          1           0        3.537878    4.713766    1.142969
     71          1           0        5.025014    3.905704    0.633446
     72          6           0        5.166640   -1.939808   -0.586261
     73          1           0        5.769105   -1.840741    0.318896
     74          1           0        5.677291   -2.628732   -1.266910
     75          6           0        4.897384   -0.601093   -1.277729
     76          1           0        4.645591    0.156243   -0.529783
     77          1           0        5.739798   -0.241372   -1.872038
 ---------------------------------------------------------------------

 SCF Done:  E(RM062X) =  -1991.38919944     A.U. after   15 cycles

 The electronic state is 1-A.
 Alpha  occ. eigenvalues --  -90.10360 -19.63374 -19.60088 -19.59253 -19.58578
 Alpha  occ. eigenvalues --  -19.58350 -14.84804 -14.80506 -14.69391 -10.65466
 Alpha  occ. eigenvalues --  -10.63231 -10.62400 -10.61508 -10.59139 -10.59072
 Alpha  occ. eigenvalues --  -10.59046 -10.57822 -10.57421 -10.56824 -10.56653
 Alpha  occ. eigenvalues --  -10.56043 -10.55752 -10.55516 -10.54971 -10.54917
 Alpha  occ. eigenvalues --  -10.54864 -10.54587 -10.54548 -10.54495 -10.53772
 Alpha  occ. eigenvalues --  -10.53713 -10.53560 -10.53164 -10.53061 -10.52623
 Alpha  occ. eigenvalues --  -10.52591  -8.41324  -6.33562  -6.33469  -6.33389
 Alpha  occ. eigenvalues --   -1.19121  -1.17890  -1.12938  -1.10285  -1.09850
 Alpha  occ. eigenvalues --   -1.09142  -1.06157  -0.97538  -0.95260  -0.94801
 Alpha  occ. eigenvalues --   -0.92185  -0.89852  -0.88583  -0.88065  -0.85017
 Alpha  occ. eigenvalues --   -0.84947  -0.83650  -0.83504  -0.83301  -0.80187
 Alpha  occ. eigenvalues --   -0.79144  -0.76352  -0.75656  -0.74679  -0.70939
 Alpha  occ. eigenvalues --   -0.70192  -0.69090  -0.68718  -0.68359  -0.68008
 Alpha  occ. eigenvalues --   -0.65801  -0.64725  -0.63942  -0.63426  -0.61624
 Alpha  occ. eigenvalues --   -0.60267  -0.59392  -0.58982  -0.58355  -0.56168
 Alpha  occ. eigenvalues --   -0.55450  -0.55163  -0.55062  -0.54086  -0.53684
 Alpha  occ. eigenvalues --   -0.53440  -0.53074  -0.52403  -0.51964  -0.51719
 Alpha  occ. eigenvalues --   -0.51139  -0.50991  -0.50610  -0.50161  -0.49829
 Alpha  occ. eigenvalues --   -0.49599  -0.49487  -0.48831  -0.48350  -0.47996
 Alpha  occ. eigenvalues --   -0.47781  -0.47170  -0.46978  -0.46955  -0.45932
 Alpha  occ. eigenvalues --   -0.45818  -0.45242  -0.43951  -0.43649  -0.43422
 Alpha  occ. eigenvalues --   -0.42764  -0.42478  -0.42239  -0.41934  -0.41895
 Alpha  occ. eigenvalues --   -0.41157  -0.40852  -0.40565  -0.39913  -0.39529
 Alpha  occ. eigenvalues --   -0.39364  -0.39206  -0.38775  -0.38381  -0.37863
 Alpha  occ. eigenvalues --   -0.37324  -0.36228  -0.35872  -0.35358  -0.35115
 Alpha  occ. eigenvalues --   -0.34390  -0.33117  -0.32080  -0.31711  -0.31500
 Alpha  occ. eigenvalues --   -0.29853  -0.28886  -0.28318  -0.27471  -0.25406
 Alpha virt. eigenvalues --   -0.01023   0.00650   0.03295   0.03792   0.09078
 Alpha virt. eigenvalues --    0.10151   0.10916   0.11797   0.12992   0.13486
 Alpha virt. eigenvalues --    0.13860   0.14246   0.15105   0.15494   0.15763

 Mulliken charges:
               1
     1  C   -0.303927
     2  C   -0.304182
     3  C   -0.309690
     4  C   -0.073352
     5  C    0.062502
     6  C   -0.305143
     7  H    0.165978
     8  H    0.160926
     9  H    0.159136
    10  H    0.146310
    11  H    0.156671
    12  H    0.212847
    13  H    0.141491
    14  H    0.179456
    15  H    0.149370
    16  H    0.150706
    17  N   -0.424394
    18  C    0.100031
    19  C    0.083940
    20  C   -0.227809
    21  H    0.205085
    22  C   -0.226978
    23  H    0.264250
    24  C    0.428270
    25  H    0.188188
    26  H    0.206990
    27  N   -0.528876
    28  C   -0.157632
    29  H    0.178379
    30  H    0.199288
    31  C   -0.147057
    32  H    0.169551
    33  H    0.195869
    34  N   -0.755485
    35  S    1.249493
    36  O   -0.646754
    37  O   -0.670416
    38  C    0.048720
    39  C   -0.177098
    40  C   -0.187092
    41  C   -0.169913
    42  C   -0.162079
    43  C   -0.197944
    44  H    0.203296
    45  H    0.139263
    46  H    0.156403
    47  H    0.161838
    48  H    0.156796
    49  O   -0.712224
    50  H    0.481397
    51  C    0.647512
    52  O   -0.523114
    53  O   -0.645325
    54  H    0.485722
    55  C   -0.367797
    56  H    0.200676
    57  H    0.164095
    58  C   -0.067104
    59  H    0.128328
    60  H    0.157758
    61  C   -0.656699
    62  H    0.219434
    63  H    0.188006
    64  H    0.207865
    65  C   -0.287192
    66  H    0.143616
    67  H    0.166038
    68  C   -0.480367
    69  H    0.158495
    70  H    0.158517
    71  H    0.150245
    72  C   -0.337317
    73  H    0.184136
    74  H    0.170032
    75  C   -0.335734
    76  H    0.182525
    77  H    0.173251
 Sum of Mulliken charges =  -0.00000

 Dipole moment (field-independent basis, Debye):
    X=              1.5490    Y=             -0.3879    Z=             -6.5235  Tot=              6.7161
 Quadrupole moment (field-independent basis, Debye-Ang):
   XX=           -198.1695   YY=           -223.1376   ZZ=           -221.9047
   XY=            -11.9952   XZ=             -1.1469   YZ=             12.3948

 Normal termination of Gaussian 16 at Fri Feb  8 00:27:06 2019.
