 Gaussian 16, Revision A.03,
 Gaussian 16:  ES64L-G16RevA.03 25-Dec-2016

 ------------------------------------------
 #p M062X/6-31G* em=gd3 force int=ultrafine
 ------------------------------------------

 -----
 Title
 -----
 Symbolic Z-matrix:
 Charge =  0 Multiplicity = 1

                         Standard orientation:
 ---------------------------------------------------------------------
 Center     Atomic      Atomic             Coordinates (Angstroms)
 Number     Number       Type             X           Y           Z
 ---------------------------------------------------------------------
      1          6           0       -4.859152    0.319324   -0.482496
      2          6           0       -4.982826   -0.960055   -1.315323
      3          6           0       -3.625029   -1.360895   -1.905895
      4          6           0       -2.629561   -1.557170   -0.767035
      5          6           0       -2.461585   -0.255870    0.066275
      6          6           0       -3.824599    0.161972    0.635825
      7          1           0       -3.707158   -2.272132   -2.509180
      8          1           0       -5.356193   -1.775357   -0.681995
      9          1           0       -5.708329   -0.824916   -2.124254
     10          1           0       -4.548113    1.143488   -1.140188
     11          1           0       -5.834542    0.592946   -0.066281
     12          1           0       -2.980674   -2.354952   -0.104970
     13          1           0       -2.183413    0.517963   -0.665890
     14          1           0       -4.158601   -0.581103    1.370198
     15          1           0       -3.683978    1.114522    1.160932
     16          1           0       -3.291108   -0.549114   -2.566826
     17          7           0       -1.276797   -1.972395   -1.212002
     18          6           0       -0.630590   -1.293188   -2.188869
     19          6           0       -0.548243   -2.741230   -0.367843
     20          6           0        0.724953   -1.349203   -2.344263
     21          1           0       -1.247191   -0.674394   -2.827948
     22          6           0        0.810943   -2.845695   -0.458743
     23          1           0       -1.104879   -3.234323    0.421908
     24          6           0        1.518310   -2.070261   -1.408508
     25          1           0        1.180795   -0.782417   -3.145581
     26          1           0        1.320885   -3.434093    0.291032
     27          7           0        2.857766   -2.003140   -1.405138
     28          6           0        3.621809   -2.499489   -0.252062
     29          1           0        3.537102   -3.586401   -0.167807
     30          1           0        3.228611   -2.037073    0.664131
     31          6           0        3.585420   -0.932100   -2.106813
     32          1           0        3.854472   -1.258583   -3.118363
     33          1           0        2.962176   -0.035841   -2.162426
     34          7           0       -1.343672   -0.315515    0.976234
     35         16           0       -1.351628   -1.207695    2.283187
     36          8           0       -2.446395   -2.200666    2.318397
     37          8           0        0.014706   -1.760380    2.486151
     38          6           0       -0.822226    2.797282   -0.095255
     39          6           0       -0.219968    2.137198   -1.174485
     40          6           0       -0.850839    2.124142   -2.417248
     41          6           0       -2.097533    2.727710   -2.590012
     42          6           0       -2.710727    3.356806   -1.509677
     43          6           0       -2.069233    3.391060   -0.274661
     44          1           0        0.718560    1.605508   -1.025893
     45          1           0       -0.369123    1.635681   -3.261964
     46          1           0       -2.589533    2.707761   -3.557855
     47          1           0       -3.686355    3.819590   -1.621945
     48          1           0       -2.543256    3.874960    0.575733
     49          8           0        0.298593    1.603844    1.692918
     50          1           0       -0.308766    0.882387    1.311157
     51          6           0        2.432703    0.573495    1.164563
     52          8           0        2.094784    0.166872    0.068620
     53          8           0        2.280055   -0.125995    2.284206
     54          1           0        1.543383   -0.783475    2.179047
     55          6           0        3.157436    1.883218    1.377241
     56          1           0        2.616991    2.420441    2.163796
     57          1           0        4.152516    1.657894    1.783753
     58          6           0       -0.170413    2.844276    1.269708
     59          1           0       -0.889740    3.267050    1.989154
     60          1           0        0.693243    3.526481    1.249103
     61          6           0       -1.561882   -0.079465    3.660269
     62          1           0       -0.765485    0.662721    3.565853
     63          1           0       -2.541019    0.396665    3.579339
     64          1           0       -1.471824   -0.633209    4.595567
     65          6           0        3.275200    2.724608    0.108463
     66          1           0        3.666541    2.105103   -0.707076
     67          1           0        2.278543    3.044323   -0.217532
     68          6           0        4.170240    3.944467    0.313353
     69          1           0        4.289618    4.514219   -0.612767
     70          1           0        3.754692    4.618453    1.069967
     71          1           0        5.167137    3.642150    0.652114
     72          6           0        5.045491   -2.033411   -0.541291
     73          1           0        5.641155   -1.952651    0.370241
     74          1           0        5.541745   -2.735565   -1.218859
     75          6           0        4.820716   -0.687796   -1.234129
     76          1           0        4.578931    0.073198   -0.487131
     77          1           0        5.680294   -0.345204   -1.813807
 ---------------------------------------------------------------------

 SCF Done:  E(RM062X) =  -1991.38109546     A.U. after   15 cycles

 The electronic state is 1-A.
 Alpha  occ. eigenvalues --  -90.10218 -19.63678 -19.60234 -19.58568 -19.58288
 Alpha  occ. eigenvalues --  -19.58265 -14.84804 -14.80414 -14.69262 -10.65898
 Alpha  occ. eigenvalues --  -10.63220 -10.62446 -10.61643 -10.59272 -10.59060
 Alpha  occ. eigenvalues --  -10.58875 -10.57833 -10.57311 -10.56773 -10.56725
 Alpha  occ. eigenvalues --  -10.55925 -10.55687 -10.55638 -10.55110 -10.55039
 Alpha  occ. eigenvalues --  -10.54948 -10.54657 -10.54617 -10.54520 -10.54008
 Alpha  occ. eigenvalues --  -10.53605 -10.53604 -10.53561 -10.53269 -10.52954
 Alpha  occ. eigenvalues --  -10.52621  -8.41168  -6.33405  -6.33315  -6.33237
 Alpha  occ. eigenvalues --   -1.19345  -1.17666  -1.12928  -1.10125  -1.09998
 Alpha  occ. eigenvalues --   -1.09053  -1.05970  -0.97571  -0.95388  -0.94737
 Alpha  occ. eigenvalues --   -0.92196  -0.89817  -0.88566  -0.88414  -0.85111
 Alpha  occ. eigenvalues --   -0.84806  -0.83732  -0.83563  -0.83275  -0.79983
 Alpha  occ. eigenvalues --   -0.79462  -0.76309  -0.75605  -0.74642  -0.70957
 Alpha  occ. eigenvalues --   -0.70299  -0.69403  -0.68655  -0.68351  -0.68120
 Alpha  occ. eigenvalues --   -0.66026  -0.64768  -0.63919  -0.63540  -0.61610
 Alpha  occ. eigenvalues --   -0.60290  -0.59380  -0.59134  -0.58361  -0.56174
 Alpha  occ. eigenvalues --   -0.55775  -0.55335  -0.55177  -0.54532  -0.53928
 Alpha  occ. eigenvalues --   -0.53480  -0.53054  -0.52655  -0.51817  -0.51635
 Alpha  occ. eigenvalues --   -0.51062  -0.50943  -0.50630  -0.49996  -0.49850
 Alpha  occ. eigenvalues --   -0.49759  -0.49519  -0.48763  -0.48314  -0.48050
 Alpha  occ. eigenvalues --   -0.47700  -0.47266  -0.47098  -0.47003  -0.45787
 Alpha  occ. eigenvalues --   -0.45499  -0.45151  -0.43984  -0.43747  -0.43492
 Alpha  occ. eigenvalues --   -0.43103  -0.42842  -0.42139  -0.42001  -0.41800
 Alpha  occ. eigenvalues --   -0.41243  -0.40934  -0.40515  -0.39895  -0.39675
 Alpha  occ. eigenvalues --   -0.39421  -0.39377  -0.39163  -0.38400  -0.38121
 Alpha  occ. eigenvalues --   -0.37431  -0.36308  -0.35836  -0.35329  -0.35161
 Alpha  occ. eigenvalues --   -0.34207  -0.32951  -0.31952  -0.31703  -0.31155
 Alpha  occ. eigenvalues --   -0.29991  -0.28756  -0.28343  -0.27279  -0.25348
 Alpha virt. eigenvalues --   -0.01083   0.00686   0.03092   0.03661   0.08775
 Alpha virt. eigenvalues --    0.10147   0.10973   0.11769   0.12970   0.13477
 Alpha virt. eigenvalues --    0.13747   0.14316   0.15002   0.15436   0.15869

 Mulliken charges:
               1
     1  C   -0.303810
     2  C   -0.304522
     3  C   -0.309825
     4  C   -0.070627
     5  C    0.069859
     6  C   -0.304822
     7  H    0.167202
     8  H    0.161627
     9  H    0.159353
    10  H    0.144587
    11  H    0.157239
    12  H    0.208253
    13  H    0.140067
    14  H    0.182579
    15  H    0.150011
    16  H    0.149797
    17  N   -0.424540
    18  C    0.096934
    19  C    0.094180
    20  C   -0.226446
    21  H    0.204458
    22  C   -0.227922
    23  H    0.257986
    24  C    0.426109
    25  H    0.187374
    26  H    0.207942
    27  N   -0.525916
    28  C   -0.159316
    29  H    0.178072
    30  H    0.197862
    31  C   -0.145273
    32  H    0.169511
    33  H    0.193636
    34  N   -0.773728
    35  S    1.244449
    36  O   -0.635803
    37  O   -0.667288
    38  C    0.052512
    39  C   -0.177047
    40  C   -0.188847
    41  C   -0.169548
    42  C   -0.160317
    43  C   -0.199949
    44  H    0.203731
    45  H    0.140042
    46  H    0.157405
    47  H    0.162593
    48  H    0.158919
    49  O   -0.718058
    50  H    0.486686
    51  C    0.668087
    52  O   -0.520309
    53  O   -0.646600
    54  H    0.481444
    55  C   -0.375509
    56  H    0.201818
    57  H    0.167934
    58  C   -0.062770
    59  H    0.125991
    60  H    0.141784
    61  C   -0.665768
    62  H    0.232852
    63  H    0.184560
    64  H    0.205280
    65  C   -0.291624
    66  H    0.147525
    67  H    0.162474
    68  C   -0.480692
    69  H    0.160105
    70  H    0.159006
    71  H    0.152300
    72  C   -0.335607
    73  H    0.184166
    74  H    0.169459
    75  C   -0.335384
    76  H    0.179526
    77  H    0.172589
 Sum of Mulliken charges =  -0.00000

 Dipole moment (field-independent basis, Debye):
    X=              1.7204    Y=              0.2173    Z=             -6.7934  Tot=              7.0112
 Quadrupole moment (field-independent basis, Debye-Ang):
   XX=           -200.4936   YY=           -222.5326   ZZ=           -222.9809
   XY=            -11.6055   XZ=              1.2497   YZ=             13.2536

 Normal termination of Gaussian 16 at Thu Feb  7 21:27:29 2019.
