 Gaussian 16, Revision A.03,
 Gaussian 16:  ES64L-G16RevA.03 25-Dec-2016

 ------------------------------------------
 #p M062X/6-31G* em=gd3 force int=ultrafine
 ------------------------------------------

 -----
 Title
 -----
 Symbolic Z-matrix:
 Charge =  0 Multiplicity = 1

                         Standard orientation:
 ---------------------------------------------------------------------
 Center     Atomic      Atomic             Coordinates (Angstroms)
 Number     Number       Type             X           Y           Z
 ---------------------------------------------------------------------
      1          6           0       -4.842448    0.470086   -0.518183
      2          6           0       -4.998065   -0.800771   -1.358453
      3          6           0       -3.649725   -1.231904   -1.947984
      4          6           0       -2.661234   -1.468590   -0.810364
      5          6           0       -2.472528   -0.181998    0.031016
      6          6           0       -3.817953    0.278114    0.603849
      7          1           0       -3.750479   -2.137444   -2.555962
      8          1           0       -5.396174   -1.610490   -0.732881
      9          1           0       -5.716485   -0.639739   -2.168381
     10          1           0       -4.509291    1.291159   -1.167758
     11          1           0       -5.809308    0.764499   -0.097424
     12          1           0       -3.043382   -2.260371   -0.158099
     13          1           0       -2.128664    0.596140   -0.663234
     14          1           0       -4.179458   -0.461186    1.327369
     15          1           0       -3.652046    1.222192    1.135684
     16          1           0       -3.290383   -0.425226   -2.601039
     17          7           0       -1.324244   -1.921841   -1.253790
     18          6           0       -0.649587   -1.244918   -2.218242
     19          6           0       -0.621705   -2.731427   -0.420067
     20          6           0        0.702562   -1.329572   -2.358799
     21          1           0       -1.244900   -0.605004   -2.856576
     22          6           0        0.732579   -2.857178   -0.489143
     23          1           0       -1.200602   -3.235619    0.346022
     24          6           0        1.471252   -2.071917   -1.414716
     25          1           0        1.181429   -0.762794   -3.146224
     26          1           0        1.223119   -3.474417    0.250211
     27          7           0        2.801646   -2.033201   -1.393836
     28          6           0        3.546473   -2.555641   -0.237950
     29          1           0        3.419082   -3.638513   -0.152652
     30          1           0        3.169761   -2.057560    0.666442
     31          6           0        3.561495   -0.975050   -2.082197
     32          1           0        3.822518   -1.302463   -3.096051
     33          1           0        2.961413   -0.063027   -2.118111
     34          7           0       -1.378887   -0.320799    0.976571
     35         16           0       -1.417376   -1.220655    2.330059
     36          8           0       -2.612951   -2.068312    2.281385
     37          8           0       -0.119250   -1.884984    2.489324
     38          6           0       -0.632219    2.730822   -0.065738
     39          6           0       -0.093009    2.092135   -1.190830
     40          6           0       -0.760778    2.147519   -2.413390
     41          6           0       -1.988206    2.802105   -2.526974
     42          6           0       -2.540080    3.417413   -1.405074
     43          6           0       -1.859807    3.384111   -0.188440
     44          1           0        0.827955    1.520219   -1.075947
     45          1           0       -0.319966    1.674518   -3.289102
     46          1           0       -2.507393    2.838335   -3.480500
     47          1           0       -3.497980    3.925007   -1.476156
     48          1           0       -2.292723    3.864747    0.686501
     49          8           0        0.512433    1.396479    1.620043
     50          1           0       -0.569309    0.376949    1.017562
     51          6           0        2.142027    0.687305    1.187679
     52          8           0        2.009871    0.167184    0.056232
     53          8           0        2.213854   -0.132553    2.291524
     54          1           0        1.536058   -0.825899    2.173212
     55          6           0        3.079144    1.874420    1.388147
     56          1           0        2.724071    2.497939    2.215601
     57          1           0        4.035476    1.444387    1.718347
     58          6           0        0.083991    2.668112    1.277563
     59          1           0       -0.614104    3.049410    2.045629
     60          1           0        0.922392    3.387665    1.264043
     61          6           0       -1.527774   -0.041969    3.659593
     62          1           0       -0.677593    0.633701    3.516549
     63          1           0       -2.478516    0.487017    3.576497
     64          1           0       -1.458188   -0.583436    4.604166
     65          6           0        3.311460    2.694716    0.122742
     66          1           0        3.684802    2.030399   -0.665389
     67          1           0        2.363342    3.092893   -0.256272
     68          6           0        4.293976    3.839589    0.356611
     69          1           0        4.478855    4.407766   -0.560116
     70          1           0        3.911336    4.535846    1.110996
     71          1           0        5.256585    3.460956    0.718165
     72          6           0        4.983954   -2.142934   -0.533402
     73          1           0        5.588536   -2.098826    0.374406
     74          1           0        5.447921   -2.852468   -1.227349
     75          6           0        4.794437   -0.778021   -1.197052
     76          1           0        4.544627   -0.036798   -0.432666
     77          1           0        5.665037   -0.438944   -1.762353
 ---------------------------------------------------------------------

 SCF Done:  E(RM062X) =  -1991.35561058     A.U. after   15 cycles

 The electronic state is 1-A.
 Alpha  occ. eigenvalues --  -90.14073 -19.61876 -19.61561 -19.59120 -19.55797
 Alpha  occ. eigenvalues --  -19.53805 -14.85271 -14.80319 -14.75240 -10.63423
 Alpha  occ. eigenvalues --  -10.63359 -10.62729 -10.62217 -10.60867 -10.59374
 Alpha  occ. eigenvalues --  -10.58252 -10.58159 -10.57925 -10.57126 -10.56694
 Alpha  occ. eigenvalues --  -10.55888 -10.55789 -10.55657 -10.55122 -10.54806
 Alpha  occ. eigenvalues --  -10.54795 -10.54716 -10.54656 -10.54586 -10.54359
 Alpha  occ. eigenvalues --  -10.54197 -10.53830 -10.53015 -10.51519 -10.51451
 Alpha  occ. eigenvalues --  -10.50614  -8.45067  -6.37289  -6.37236  -6.37124
 Alpha  occ. eigenvalues --   -1.21881  -1.13956  -1.13504  -1.10097  -1.09158
 Alpha  occ. eigenvalues --   -1.04794  -1.03459  -1.01438  -0.95722  -0.94798
 Alpha  occ. eigenvalues --   -0.93472  -0.90221  -0.88710  -0.86095  -0.86057
 Alpha  occ. eigenvalues --   -0.84707  -0.84168  -0.84137  -0.83019  -0.82630
 Alpha  occ. eigenvalues --   -0.76828  -0.76666  -0.75736  -0.72845  -0.72698
 Alpha  occ. eigenvalues --   -0.71621  -0.68309  -0.68098  -0.67791  -0.67173
 Alpha  occ. eigenvalues --   -0.66660  -0.65192  -0.64513  -0.63375  -0.60574
 Alpha  occ. eigenvalues --   -0.60379  -0.59800  -0.59422  -0.57848  -0.57674
 Alpha  occ. eigenvalues --   -0.57105  -0.56353  -0.55351  -0.54585  -0.53973
 Alpha  occ. eigenvalues --   -0.53443  -0.52674  -0.52394  -0.52170  -0.51541
 Alpha  occ. eigenvalues --   -0.51452  -0.51229  -0.50724  -0.50068  -0.49756
 Alpha  occ. eigenvalues --   -0.49229  -0.48875  -0.48275  -0.48193  -0.47982
 Alpha  occ. eigenvalues --   -0.47754  -0.47297  -0.47031  -0.46714  -0.46077
 Alpha  occ. eigenvalues --   -0.45139  -0.45105  -0.44748  -0.43952  -0.43224
 Alpha  occ. eigenvalues --   -0.42433  -0.42304  -0.41334  -0.41209  -0.41137
 Alpha  occ. eigenvalues --   -0.40707  -0.40445  -0.40104  -0.39997  -0.39481
 Alpha  occ. eigenvalues --   -0.39344  -0.38857  -0.38471  -0.37973  -0.37873
 Alpha  occ. eigenvalues --   -0.37373  -0.37077  -0.36805  -0.35666  -0.35379
 Alpha  occ. eigenvalues --   -0.34943  -0.34209  -0.32456  -0.30524  -0.29613
 Alpha  occ. eigenvalues --   -0.28665  -0.28137  -0.27779  -0.26323  -0.24871
 Alpha virt. eigenvalues --   -0.01383   0.00433   0.03495   0.04059   0.10221
 Alpha virt. eigenvalues --    0.10845   0.11528   0.12200   0.13350   0.13412
 Alpha virt. eigenvalues --    0.14077   0.14556   0.15263   0.15446   0.15639

 Mulliken charges:
               1
     1  C   -0.306848
     2  C   -0.307346
     3  C   -0.311625
     4  C   -0.063186
     5  C    0.067596
     6  C   -0.307010
     7  H    0.173843
     8  H    0.162776
     9  H    0.165844
    10  H    0.152556
    11  H    0.163798
    12  H    0.208950
    13  H    0.172341
    14  H    0.189536
    15  H    0.160654
    16  H    0.156793
    17  N   -0.434251
    18  C    0.086512
    19  C    0.086953
    20  C   -0.215943
    21  H    0.204831
    22  C   -0.224231
    23  H    0.247396
    24  C    0.441639
    25  H    0.192380
    26  H    0.209374
    27  N   -0.519597
    28  C   -0.161942
    29  H    0.170545
    30  H    0.212934
    31  C   -0.146212
    32  H    0.163921
    33  H    0.203292
    34  N   -0.817720
    35  S    1.240245
    36  O   -0.608529
    37  O   -0.605088
    38  C    0.053510
    39  C   -0.198413
    40  C   -0.191535
    41  C   -0.174566
    42  C   -0.163595
    43  C   -0.206214
    44  H    0.225308
    45  H    0.137826
    46  H    0.154315
    47  H    0.158294
    48  H    0.154026
    49  O   -0.652163
    50  H    0.454007
    51  C    0.688075
    52  O   -0.620170
    53  O   -0.677778
    54  H    0.448345
    55  C   -0.339693
    56  H    0.163599
    57  H    0.151104
    58  C   -0.053837
    59  H    0.110245
    60  H    0.134322
    61  C   -0.669800
    62  H    0.266655
    63  H    0.199015
    64  H    0.220403
    65  C   -0.288463
    66  H    0.142320
    67  H    0.150814
    68  C   -0.476605
    69  H    0.151321
    70  H    0.152738
    71  H    0.148582
    72  C   -0.334720
    73  H    0.184672
    74  H    0.163044
    75  C   -0.337261
    76  H    0.199567
    77  H    0.167523
 Sum of Mulliken charges =  -0.00000

 Dipole moment (field-independent basis, Debye):
    X=             -2.1846    Y=             -1.8814    Z=             -5.9428  Tot=              6.6052
 Quadrupole moment (field-independent basis, Debye-Ang):
   XX=           -204.7413   YY=           -224.4580   ZZ=           -218.7658
   XY=            -12.8221   XZ=             -3.5646   YZ=             10.5444

 Normal termination of Gaussian 16 at Thu Feb  7 18:44:52 2019.
