 Gaussian 16, Revision A.03,
 Gaussian 16:  ES64L-G16RevA.03 25-Dec-2016

 ------------------------------------------
 #p M062X/6-31G* em=gd3 force int=ultrafine
 ------------------------------------------

 -----
 Title
 -----
 Symbolic Z-matrix:
 Charge =  0 Multiplicity = 1

                         Standard orientation:
 ---------------------------------------------------------------------
 Center     Atomic      Atomic             Coordinates (Angstroms)
 Number     Number       Type             X           Y           Z
 ---------------------------------------------------------------------
      1          6           0       -4.863967    0.275530   -0.470878
      2          6           0       -4.977738   -1.009705   -1.296032
      3          6           0       -3.616561   -1.402925   -1.883654
      4          6           0       -2.617041   -1.579154   -0.744544
      5          6           0       -2.457683   -0.266505    0.074276
      6          6           0       -3.825081    0.135254    0.645994
      7          1           0       -3.690743   -2.320773   -2.478007
      8          1           0       -5.345855   -1.824347   -0.658790
      9          1           0       -5.703572   -0.884447   -2.106378
     10          1           0       -4.561338    1.098236   -1.134252
     11          1           0       -5.841059    0.543049   -0.054695
     12          1           0       -2.961400   -2.372589   -0.074080
     13          1           0       -2.195634    0.502985   -0.668091
     14          1           0       -4.148054   -0.610959    1.382459
     15          1           0       -3.697091    1.090742    1.168725
     16          1           0       -3.291564   -0.594471   -2.552969
     17          7           0       -1.263626   -1.990739   -1.189230
     18          6           0       -0.625166   -1.317968   -2.175326
     19          6           0       -0.528889   -2.749275   -0.341356
     20          6           0        0.729953   -1.368818   -2.335378
     21          1           0       -1.248001   -0.709640   -2.818392
     22          6           0        0.830288   -2.847655   -0.436355
     23          1           0       -1.080486   -3.235999    0.455933
     24          6           0        1.529862   -2.077381   -1.395839
     25          1           0        1.179941   -0.807997   -3.144110
     26          1           0        1.346206   -3.425954    0.317161
     27          7           0        2.868846   -2.004583   -1.398094
     28          6           0        3.639611   -2.493448   -0.246696
     29          1           0        3.562931   -3.581042   -0.161456
     30          1           0        3.244965   -2.033569    0.670133
     31          6           0        3.589787   -0.937594   -2.111666
     32          1           0        3.856628   -1.272141   -3.121265
     33          1           0        2.962586   -0.044452   -2.173445
     34          7           0       -1.333590   -0.296434    0.980657
     35         16           0       -1.325706   -1.193432    2.283186
     36          8           0       -2.395970   -2.213691    2.312256
     37          8           0        0.050408   -1.719618    2.493149
     38          6           0       -0.869154    2.814126   -0.114979
     39          6           0       -0.251851    2.141328   -1.177410
     40          6           0       -0.871478    2.101196   -2.425070
     41          6           0       -2.122145    2.689893   -2.619061
     42          6           0       -2.752293    3.328078   -1.553929
     43          6           0       -2.122291    3.389136   -0.313669
     44          1           0        0.690350    1.621382   -1.011287
     45          1           0       -0.376859    1.604001   -3.256998
     46          1           0       -2.603665    2.651757   -3.591661
     47          1           0       -3.731794    3.778417   -1.682811
     48          1           0       -2.610392    3.881406    0.523979
     49          8           0        0.292919    1.680456    1.688815
     50          1           0       -0.297787    0.942741    1.326308
     51          6           0        2.439450    0.587704    1.166610
     52          8           0        2.092359    0.177359    0.073092
     53          8           0        2.280526   -0.099209    2.289864
     54          1           0        1.546979   -0.762361    2.187311
     55          6           0        3.168739    1.895852    1.369640
     56          1           0        2.630236    2.434894    2.155919
     57          1           0        4.166916    1.674116    1.771020
     58          6           0       -0.218662    2.900650    1.248899
     59          1           0       -0.950289    3.311937    1.962837
     60          1           0        0.621744    3.610974    1.215278
     61          6           0       -1.572996   -0.080189    3.665753
     62          1           0       -0.793547    0.681762    3.588178
     63          1           0       -2.562345    0.372827    3.576738
     64          1           0       -1.482022   -0.639986    4.597404
     65          6           0        3.269855    2.729211    0.095336
     66          1           0        3.670091    2.110839   -0.716849
     67          1           0        2.264601    3.024441   -0.226877
     68          6           0        4.140516    3.968345    0.285649
     69          1           0        4.237950    4.534961   -0.644969
     70          1           0        3.717113    4.637079    1.042490
     71          1           0        5.147245    3.690314    0.616119
     72          6           0        5.059775   -2.018481   -0.539648
     73          1           0        5.653256   -1.924215    0.372017
     74          1           0        5.563055   -2.723278   -1.209182
     75          6           0        4.826869   -0.680769   -1.245327
     76          1           0        4.584978    0.087275   -0.505679
     77          1           0        5.683422   -0.341705   -1.831531
 ---------------------------------------------------------------------

 SCF Done:  E(RM062X) =  -1991.38335820     A.U. after   15 cycles

 The electronic state is 1-A.
 Alpha  occ. eigenvalues --  -90.10239 -19.63650 -19.60194 -19.58763 -19.58336
 Alpha  occ. eigenvalues --  -19.58290 -14.84791 -14.80422 -14.69277 -10.65799
 Alpha  occ. eigenvalues --  -10.63210 -10.62429 -10.61591 -10.59231 -10.59072
 Alpha  occ. eigenvalues --  -10.58904 -10.57825 -10.57361 -10.56766 -10.56712
 Alpha  occ. eigenvalues --  -10.55939 -10.55694 -10.55619 -10.55074 -10.55005
 Alpha  occ. eigenvalues --  -10.54926 -10.54649 -10.54607 -10.54513 -10.53962
 Alpha  occ. eigenvalues --  -10.53595 -10.53501 -10.53462 -10.53357 -10.52887
 Alpha  occ. eigenvalues --  -10.52623  -8.41192  -6.33429  -6.33339  -6.33260
 Alpha  occ. eigenvalues --   -1.19322  -1.17705  -1.12921  -1.10117  -1.10004
 Alpha  occ. eigenvalues --   -1.09059  -1.05997  -0.97534  -0.95359  -0.94733
 Alpha  occ. eigenvalues --   -0.92187  -0.89815  -0.88557  -0.88349  -0.85096
 Alpha  occ. eigenvalues --   -0.84832  -0.83705  -0.83540  -0.83279  -0.80023
 Alpha  occ. eigenvalues --   -0.79408  -0.76311  -0.75607  -0.74664  -0.70944
 Alpha  occ. eigenvalues --   -0.70265  -0.69353  -0.68660  -0.68342  -0.68098
 Alpha  occ. eigenvalues --   -0.65987  -0.64758  -0.63921  -0.63524  -0.61603
 Alpha  occ. eigenvalues --   -0.60270  -0.59367  -0.59105  -0.58353  -0.56158
 Alpha  occ. eigenvalues --   -0.55673  -0.55298  -0.55161  -0.54423  -0.53884
 Alpha  occ. eigenvalues --   -0.53462  -0.53049  -0.52622  -0.51853  -0.51643
 Alpha  occ. eigenvalues --   -0.51067  -0.50947  -0.50620  -0.50016  -0.49828
 Alpha  occ. eigenvalues --   -0.49718  -0.49520  -0.48769  -0.48311  -0.48025
 Alpha  occ. eigenvalues --   -0.47762  -0.47238  -0.47080  -0.46988  -0.45814
 Alpha  occ. eigenvalues --   -0.45545  -0.45177  -0.43960  -0.43704  -0.43472
 Alpha  occ. eigenvalues --   -0.42975  -0.42828  -0.42149  -0.42039  -0.41823
 Alpha  occ. eigenvalues --   -0.41214  -0.40927  -0.40516  -0.39877  -0.39640
 Alpha  occ. eigenvalues --   -0.39389  -0.39337  -0.39083  -0.38400  -0.38083
 Alpha  occ. eigenvalues --   -0.37388  -0.36276  -0.35823  -0.35329  -0.35178
 Alpha  occ. eigenvalues --   -0.34248  -0.32981  -0.31973  -0.31680  -0.31281
 Alpha  occ. eigenvalues --   -0.29958  -0.28802  -0.28333  -0.27311  -0.25341
 Alpha virt. eigenvalues --   -0.01064   0.00685   0.03122   0.03693   0.08792
 Alpha virt. eigenvalues --    0.10164   0.10965   0.11788   0.12963   0.13512
 Alpha virt. eigenvalues --    0.13786   0.14315   0.14987   0.15463   0.15867

 Mulliken charges:
               1
     1  C   -0.303910
     2  C   -0.304335
     3  C   -0.309874
     4  C   -0.071587
     5  C    0.068259
     6  C   -0.304757
     7  H    0.167023
     8  H    0.161393
     9  H    0.159274
    10  H    0.144938
    11  H    0.157066
    12  H    0.209322
    13  H    0.140294
    14  H    0.181236
    15  H    0.150201
    16  H    0.149851
    17  N   -0.424200
    18  C    0.097246
    19  C    0.090669
    20  C   -0.226313
    21  H    0.204535
    22  C   -0.227341
    23  H    0.259728
    24  C    0.426649
    25  H    0.187459
    26  H    0.207803
    27  N   -0.526536
    28  C   -0.159056
    29  H    0.178152
    30  H    0.197930
    31  C   -0.145605
    32  H    0.169528
    33  H    0.193944
    34  N   -0.768533
    35  S    1.246332
    36  O   -0.638775
    37  O   -0.668506
    38  C    0.051540
    39  C   -0.176382
    40  C   -0.188777
    41  C   -0.169497
    42  C   -0.160599
    43  C   -0.199844
    44  H    0.204257
    45  H    0.139766
    46  H    0.157179
    47  H    0.162413
    48  H    0.158569
    49  O   -0.717663
    50  H    0.486098
    51  C    0.663667
    52  O   -0.521518
    53  O   -0.645927
    54  H    0.483072
    55  C   -0.374123
    56  H    0.202659
    57  H    0.166930
    58  C   -0.063130
    59  H    0.126663
    60  H    0.144444
    61  C   -0.663943
    62  H    0.230112
    63  H    0.185302
    64  H    0.205707
    65  C   -0.290668
    66  H    0.146849
    67  H    0.162230
    68  C   -0.480585
    69  H    0.159774
    70  H    0.158745
    71  H    0.152053
    72  C   -0.336114
    73  H    0.184296
    74  H    0.169615
    75  C   -0.335541
    76  H    0.180167
    77  H    0.172700
 Sum of Mulliken charges =  -0.00000

 Dipole moment (field-independent basis, Debye):
    X=              1.6465    Y=              0.0600    Z=             -6.7380  Tot=              6.9365
 Quadrupole moment (field-independent basis, Debye-Ang):
   XX=           -200.0371   YY=           -222.4551   ZZ=           -222.8468
   XY=            -11.5856   XZ=              0.7712   YZ=             13.0267

 Normal termination of Gaussian 16 at Thu Feb  7 21:57:43 2019.
