 Gaussian 16, Revision A.03,
 Gaussian 16:  ES64L-G16RevA.03 25-Dec-2016

 ------------------------------------------
 #p M062X/6-31G* em=gd3 force int=ultrafine
 ------------------------------------------

 -----
 Title
 -----
 Symbolic Z-matrix:
 Charge =  0 Multiplicity = 1

                         Standard orientation:
 ---------------------------------------------------------------------
 Center     Atomic      Atomic             Coordinates (Angstroms)
 Number     Number       Type             X           Y           Z
 ---------------------------------------------------------------------
      1          6           0       -4.845821    0.382146   -0.502538
      2          6           0       -4.978416   -0.887717   -1.348688
      3          6           0       -3.623139   -1.293316   -1.940968
      4          6           0       -2.635087   -1.512325   -0.803138
      5          6           0       -2.459201   -0.229463    0.049412
      6          6           0       -3.816877    0.204245    0.616952
      7          1           0       -3.708392   -2.198162   -2.552348
      8          1           0       -5.360170   -1.706787   -0.725208
      9          1           0       -5.700106   -0.737578   -2.157968
     10          1           0       -4.528355    1.210823   -1.151278
     11          1           0       -5.818946    0.657872   -0.082938
     12          1           0       -2.995559   -2.311480   -0.148108
     13          1           0       -2.150161    0.556602   -0.657728
     14          1           0       -4.161102   -0.542210    1.341982
     15          1           0       -3.668544    1.150530    1.152012
     16          1           0       -3.279708   -0.476619   -2.590848
     17          7           0       -1.285157   -1.937473   -1.247768
     18          6           0       -0.626973   -1.249501   -2.210698
     19          6           0       -0.569160   -2.730452   -0.414608
     20          6           0        0.728415   -1.315202   -2.359248
     21          1           0       -1.233974   -0.614924   -2.843308
     22          6           0        0.789590   -2.843674   -0.497098
     23          1           0       -1.135496   -3.239528    0.357642
     24          6           0        1.508994   -2.055092   -1.427408
     25          1           0        1.194456   -0.739465   -3.148268
     26          1           0        1.290570   -3.450934    0.243782
     27          7           0        2.847489   -1.993953   -1.411318
     28          6           0        3.599580   -2.504289   -0.256708
     29          1           0        3.499411   -3.589911   -0.176088
     30          1           0        3.209614   -2.036396    0.658252
     31          6           0        3.584798   -0.916897   -2.093468
     32          1           0        3.855504   -1.230803   -3.108448
     33          1           0        2.967942   -0.015583   -2.137108
     34          7           0       -1.357006   -0.348507    0.966692
     35         16           0       -1.391248   -1.233409    2.281272
     36          8           0       -2.531859   -2.170375    2.299372
     37          8           0       -0.048019   -1.837029    2.477112
     38          6           0       -0.749778    2.775211   -0.063998
     39          6           0       -0.165975    2.134637   -1.164818
     40          6           0       -0.810545    2.159263   -2.399218
     41          6           0       -2.052819    2.780824   -2.539388
     42          6           0       -2.643198    3.395367   -1.437988
     43          6           0       -1.985971    3.394793   -0.211558
     44          1           0        0.764338    1.583733   -1.034158
     45          1           0       -0.346302    1.682711   -3.260458
     46          1           0       -2.558779    2.787435   -3.499768
     47          1           0       -3.614473    3.871340   -1.525128
     48          1           0       -2.438109    3.862012    0.659772
     49          8           0        0.268312    1.436814    1.646752
     50          1           0       -0.398463    0.733113    1.231672
     51          6           0        2.383476    0.573148    1.172892
     52          8           0        2.086807    0.155724    0.068572
     53          8           0        2.256171   -0.144824    2.288422
     54          1           0        1.530883   -0.808874    2.177782
     55          6           0        3.116024    1.876506    1.397762
     56          1           0        2.616924    2.430236    2.201222
     57          1           0        4.103610    1.597328    1.787762
     58          6           0       -0.103295    2.724305    1.299372
     59          1           0       -0.791416    3.158075    2.042762
     60          1           0        0.796443    3.359898    1.309062
     61          6           0       -1.543958   -0.086127    3.651612
     62          1           0       -0.726509    0.628997    3.527462
     63          1           0       -2.509661    0.417604    3.581072
     64          1           0       -1.452296   -0.630439    4.592572
     65          6           0        3.276585    2.728005    0.139922
     66          1           0        3.662840    2.100190   -0.671208
     67          1           0        2.300558    3.088765   -0.205498
     68          6           0        4.211547    3.912891    0.374692
     69          1           0        4.366486    4.490075   -0.541508
     70          1           0        3.808280    4.592149    1.133382
     71          1           0        5.191271    3.570818    0.725592
     72          6           0        5.028735   -2.054101   -0.540808
     73          1           0        5.627860   -1.996529    0.370072
     74          1           0        5.512735   -2.751400   -1.232348
     75          6           0        4.815800   -0.694678   -1.209498
     76          1           0        4.568096    0.050432   -0.448278
     77          1           0        5.680115   -0.342562   -1.775998
 ---------------------------------------------------------------------

 SCF Done:  E(RM062X) =  -1991.37356810     A.U. after   15 cycles

 The electronic state is 1-A.
 Alpha  occ. eigenvalues --  -90.10495 -19.63516 -19.59922 -19.58508 -19.58466
 Alpha  occ. eigenvalues --  -19.57315 -14.84827 -14.80408 -14.69473 -10.65933
 Alpha  occ. eigenvalues --  -10.63239 -10.62469 -10.61751 -10.59323 -10.59011
 Alpha  occ. eigenvalues --  -10.58831 -10.57838 -10.56857 -10.56812 -10.56797
 Alpha  occ. eigenvalues --  -10.55889 -10.55655 -10.55648 -10.55023 -10.54950
 Alpha  occ. eigenvalues --  -10.54852 -10.54655 -10.54390 -10.54309 -10.53828
 Alpha  occ. eigenvalues --  -10.53667 -10.53653 -10.53593 -10.53348 -10.52975
 Alpha  occ. eigenvalues --  -10.52686  -8.41443  -6.33679  -6.33591  -6.33514
 Alpha  occ. eigenvalues --   -1.19131  -1.17959  -1.12973  -1.09984  -1.09095
 Alpha  occ. eigenvalues --   -1.08915  -1.06282  -0.97894  -0.95290  -0.94844
 Alpha  occ. eigenvalues --   -0.92341  -0.89861  -0.88595  -0.88448  -0.84915
 Alpha  occ. eigenvalues --   -0.84778  -0.83810  -0.83575  -0.83354  -0.80111
 Alpha  occ. eigenvalues --   -0.79474  -0.76335  -0.75630  -0.74218  -0.71068
 Alpha  occ. eigenvalues --   -0.70471  -0.69406  -0.68644  -0.68340  -0.68058
 Alpha  occ. eigenvalues --   -0.65874  -0.64843  -0.63929  -0.63475  -0.61778
 Alpha  occ. eigenvalues --   -0.60338  -0.59478  -0.58988  -0.58351  -0.56252
 Alpha  occ. eigenvalues --   -0.55877  -0.55319  -0.55236  -0.54752  -0.53887
 Alpha  occ. eigenvalues --   -0.53533  -0.53075  -0.52552  -0.51907  -0.51523
 Alpha  occ. eigenvalues --   -0.51157  -0.50938  -0.50686  -0.49985  -0.49820
 Alpha  occ. eigenvalues --   -0.49784  -0.49526  -0.48767  -0.48320  -0.47994
 Alpha  occ. eigenvalues --   -0.47387  -0.47226  -0.47094  -0.46852  -0.45872
 Alpha  occ. eigenvalues --   -0.45539  -0.45224  -0.44089  -0.43824  -0.43513
 Alpha  occ. eigenvalues --   -0.43219  -0.42808  -0.42113  -0.41762  -0.41607
 Alpha  occ. eigenvalues --   -0.41288  -0.40869  -0.40486  -0.39906  -0.39727
 Alpha  occ. eigenvalues --   -0.39438  -0.39384  -0.39170  -0.38483  -0.38057
 Alpha  occ. eigenvalues --   -0.37507  -0.36349  -0.35743  -0.35496  -0.34979
 Alpha  occ. eigenvalues --   -0.34144  -0.32971  -0.32033  -0.31670  -0.30461
 Alpha  occ. eigenvalues --   -0.29942  -0.28381  -0.28194  -0.27209  -0.25586
 Alpha virt. eigenvalues --   -0.01121   0.00675   0.03192   0.03809   0.09152
 Alpha virt. eigenvalues --    0.10141   0.10959   0.11737   0.12957   0.13443
 Alpha virt. eigenvalues --    0.13770   0.14368   0.15086   0.15383   0.15850

 Mulliken charges:
               1
     1  C   -0.303907
     2  C   -0.305035
     3  C   -0.309418
     4  C   -0.067812
     5  C    0.074544
     6  C   -0.305230
     7  H    0.167393
     8  H    0.162018
     9  H    0.159744
    10  H    0.144762
    11  H    0.157844
    12  H    0.207781
    13  H    0.142919
    14  H    0.185620
    15  H    0.150322
    16  H    0.150187
    17  N   -0.425553
    18  C    0.096199
    19  C    0.098779
    20  C   -0.226196
    21  H    0.204659
    22  C   -0.228677
    23  H    0.255168
    24  C    0.426162
    25  H    0.187871
    26  H    0.207989
    27  N   -0.524397
    28  C   -0.159248
    29  H    0.177596
    30  H    0.198087
    31  C   -0.145194
    32  H    0.169274
    33  H    0.194220
    34  N   -0.795017
    35  S    1.245186
    36  O   -0.630839
    37  O   -0.660810
    38  C    0.052933
    39  C   -0.179565
    40  C   -0.189055
    41  C   -0.170646
    42  C   -0.160751
    43  C   -0.199250
    44  H    0.204856
    45  H    0.139351
    46  H    0.156689
    47  H    0.161823
    48  H    0.158832
    49  O   -0.720233
    50  H    0.491004
    51  C    0.680171
    52  O   -0.524656
    53  O   -0.646899
    54  H    0.477554
    55  C   -0.376144
    56  H    0.196973
    57  H    0.169308
    58  C   -0.058745
    59  H    0.119754
    60  H    0.133117
    61  C   -0.669318
    62  H    0.240684
    63  H    0.184617
    64  H    0.205566
    65  C   -0.293137
    66  H    0.148142
    67  H    0.164131
    68  C   -0.480441
    69  H    0.160359
    70  H    0.159144
    71  H    0.152340
    72  C   -0.334771
    73  H    0.183834
    74  H    0.169021
    75  C   -0.335142
    76  H    0.179123
    77  H    0.172433
 Sum of Mulliken charges =  -0.00000

 Dipole moment (field-independent basis, Debye):
    X=              1.7480    Y=              0.1828    Z=             -6.6813  Tot=              6.9086
 Quadrupole moment (field-independent basis, Debye-Ang):
   XX=           -201.2382   YY=           -223.0532   ZZ=           -222.5258
   XY=            -11.5276   XZ=              1.5813   YZ=             13.3714

 Normal termination of Gaussian 16 at Thu Feb  7 20:26:53 2019.
