 Gaussian 16, Revision A.03,
 Gaussian 16:  ES64L-G16RevA.03 25-Dec-2016

 ------------------------------------------
 #p M062X/6-31G* em=gd3 force int=ultrafine
 ------------------------------------------

 -----
 Title
 -----
 Symbolic Z-matrix:
 Charge =  0 Multiplicity = 1

                         Standard orientation:
 ---------------------------------------------------------------------
 Center     Atomic      Atomic             Coordinates (Angstroms)
 Number     Number       Type             X           Y           Z
 ---------------------------------------------------------------------
      1          6           0       -4.857685    0.531440   -0.538340
      2          6           0       -5.032226   -0.751173   -1.356668
      3          6           0       -3.691842   -1.210790   -1.942862
      4          6           0       -2.702268   -1.441911   -0.805117
      5          6           0       -2.498649   -0.144142    0.013814
      6          6           0       -3.833737    0.343992    0.584218
      7          1           0       -3.806477   -2.125060   -2.534781
      8          1           0       -5.439067   -1.544486   -0.715919
      9          1           0       -5.751213   -0.594044   -2.166711
     10          1           0       -4.515452    1.337353   -1.201948
     11          1           0       -5.818974    0.845588   -0.119310
     12          1           0       -3.092671   -2.217478   -0.138117
     13          1           0       -2.142016    0.619702   -0.689390
     14          1           0       -4.203373   -0.378312    1.320122
     15          1           0       -3.651991    1.293242    1.101052
     16          1           0       -3.322912   -0.421107   -2.611118
     17          7           0       -1.372635   -1.917167   -1.243159
     18          6           0       -0.686275   -1.255720   -2.212899
     19          6           0       -0.679908   -2.727755   -0.400096
     20          6           0        0.664359   -1.353692   -2.346173
     21          1           0       -1.273330   -0.617847   -2.861014
     22          6           0        0.672376   -2.864625   -0.460675
     23          1           0       -1.266646   -3.220973    0.367092
     24          6           0        1.423397   -2.090708   -1.388059
     25          1           0        1.152696   -0.799177   -3.136444
     26          1           0        1.154780   -3.479958    0.285469
     27          7           0        2.750957   -2.066742   -1.363183
     28          6           0        3.487622   -2.583134   -0.198535
     29          1           0        3.341908   -3.662299   -0.096189
     30          1           0        3.120101   -2.057311    0.693981
     31          6           0        3.524565   -1.025084   -2.061067
     32          1           0        3.781690   -1.366315   -3.071648
     33          1           0        2.934575   -0.106935   -2.100090
     34          7           0       -1.416358   -0.272384    0.972995
     35         16           0       -1.437599   -1.157198    2.341914
     36          8           0       -2.669598   -1.948884    2.325438
     37          8           0       -0.163858   -1.864836    2.475416
     38          6           0       -0.530409    2.680624   -0.066114
     39          6           0       -0.036099    2.071251   -1.227343
     40          6           0       -0.753998    2.153125   -2.420085
     41          6           0       -1.979748    2.816821   -2.473307
     42          6           0       -2.484042    3.410653   -1.317716
     43          6           0       -1.759369    3.343420   -0.128125
     44          1           0        0.887056    1.495543   -1.153156
     45          1           0       -0.348379    1.696242   -3.320759
     46          1           0       -2.533815    2.877236   -3.405928
     47          1           0       -3.438865    3.928479   -1.342731
     48          1           0       -2.158127    3.811277    0.769858
     49          8           0        0.671487    1.362976    1.650509
     50          1           0       -0.534246    0.263061    0.867316
     51          6           0        2.050327    0.734762    1.181723
     52          8           0        1.911057    0.180675    0.029358
     53          8           0        2.260473   -0.151294    2.259512
     54          1           0        1.569638   -0.832870    2.170718
     55          6           0        3.125273    1.830210    1.317922
     56          1           0        2.885278    2.494279    2.157861
     57          1           0        4.050123    1.310718    1.600850
     58          6           0        0.240719    2.632196    1.248462
     59          1           0       -0.427019    3.014591    2.036134
     60          1           0        1.081335    3.339300    1.198446
     61          6           0       -1.478315    0.040906    3.655981
     62          1           0       -0.593404    0.668304    3.509480
     63          1           0       -2.401320    0.616444    3.571494
     64          1           0       -1.434002   -0.496700    4.604395
     65          6           0        3.378430    2.625105    0.039025
     66          1           0        3.696376    1.932019   -0.748127
     67          1           0        2.450751    3.075623   -0.333432
     68          6           0        4.428096    3.715150    0.241991
     69          1           0        4.630519    4.262416   -0.683913
     70          1           0        4.097291    4.440252    0.994104
     71          1           0        5.373061    3.287155    0.594865
     72          6           0        4.930819   -2.198970   -0.502491
     73          1           0        5.538080   -2.155809    0.403528
     74          1           0        5.381597   -2.922114   -1.191519
     75          6           0        4.757920   -0.836830   -1.175520
     76          1           0        4.508721   -0.091776   -0.414692
     77          1           0        5.633090   -0.508851   -1.740536
 ---------------------------------------------------------------------

 SCF Done:  E(RM062X) =  -1991.35560520     A.U. after   15 cycles

 The electronic state is 1-A.
 Alpha  occ. eigenvalues --  -90.14725 -19.62362 -19.62067 -19.58580 -19.57089
 Alpha  occ. eigenvalues --  -19.50711 -14.85179 -14.80038 -14.76472 -10.63155
 Alpha  occ. eigenvalues --  -10.62607 -10.62265 -10.62123 -10.61077 -10.59862
 Alpha  occ. eigenvalues --  -10.57766 -10.57756 -10.57633 -10.57036 -10.56968
 Alpha  occ. eigenvalues --  -10.56882 -10.56358 -10.55868 -10.55124 -10.55078
 Alpha  occ. eigenvalues --  -10.55044 -10.54888 -10.54689 -10.54677 -10.54656
 Alpha  occ. eigenvalues --  -10.54459 -10.54048 -10.53126 -10.51106 -10.50999
 Alpha  occ. eigenvalues --  -10.49594  -8.45697  -6.37924  -6.37873  -6.37746
 Alpha  occ. eigenvalues --   -1.22515  -1.13451  -1.12834  -1.10717  -1.08873
 Alpha  occ. eigenvalues --   -1.05982  -1.02407  -1.00105  -0.95824  -0.95222
 Alpha  occ. eigenvalues --   -0.93468  -0.90115  -0.88566  -0.86527  -0.85379
 Alpha  occ. eigenvalues --   -0.84923  -0.84848  -0.83709  -0.83317  -0.83048
 Alpha  occ. eigenvalues --   -0.76564  -0.76004  -0.75550  -0.74225  -0.73252
 Alpha  occ. eigenvalues --   -0.71752  -0.68231  -0.68134  -0.67746  -0.67480
 Alpha  occ. eigenvalues --   -0.66427  -0.65483  -0.64883  -0.63331  -0.60510
 Alpha  occ. eigenvalues --   -0.60380  -0.59945  -0.59410  -0.57945  -0.57687
 Alpha  occ. eigenvalues --   -0.57150  -0.56385  -0.55657  -0.55084  -0.54383
 Alpha  occ. eigenvalues --   -0.53555  -0.53065  -0.52666  -0.52463  -0.52174
 Alpha  occ. eigenvalues --   -0.51677  -0.50812  -0.50131  -0.49922  -0.49362
 Alpha  occ. eigenvalues --   -0.49244  -0.48930  -0.48495  -0.48188  -0.48020
 Alpha  occ. eigenvalues --   -0.47716  -0.47640  -0.47157  -0.46187  -0.45819
 Alpha  occ. eigenvalues --   -0.45312  -0.45172  -0.44391  -0.44040  -0.43188
 Alpha  occ. eigenvalues --   -0.42468  -0.42332  -0.41191  -0.40870  -0.40753
 Alpha  occ. eigenvalues --   -0.40668  -0.40398  -0.40133  -0.39840  -0.39414
 Alpha  occ. eigenvalues --   -0.39132  -0.38902  -0.38703  -0.38307  -0.37780
 Alpha  occ. eigenvalues --   -0.37433  -0.36516  -0.36441  -0.36050  -0.35025
 Alpha  occ. eigenvalues --   -0.34558  -0.34291  -0.31810  -0.31326  -0.30023
 Alpha  occ. eigenvalues --   -0.29289  -0.28822  -0.27770  -0.24346  -0.24023
 Alpha virt. eigenvalues --   -0.01230   0.00581   0.03203   0.03568   0.10157
 Alpha virt. eigenvalues --    0.10593   0.11344   0.12566   0.13167   0.13323
 Alpha virt. eigenvalues --    0.14152   0.14428   0.15066   0.15528   0.15543

 Mulliken charges:
               1
     1  C   -0.306478
     2  C   -0.307790
     3  C   -0.311229
     4  C   -0.060478
     5  C    0.065273
     6  C   -0.306793
     7  H    0.175476
     8  H    0.163264
     9  H    0.166753
    10  H    0.151295
    11  H    0.164905
    12  H    0.207348
    13  H    0.174520
    14  H    0.192537
    15  H    0.160586
    16  H    0.156410
    17  N   -0.437389
    18  C    0.079655
    19  C    0.080319
    20  C   -0.209915
    21  H    0.202853
    22  C   -0.220990
    23  H    0.243614
    24  C    0.449126
    25  H    0.192038
    26  H    0.209727
    27  N   -0.518258
    28  C   -0.165100
    29  H    0.167048
    30  H    0.220879
    31  C   -0.145346
    32  H    0.160354
    33  H    0.205405
    34  N   -0.811282
    35  S    1.237988
    36  O   -0.603605
    37  O   -0.591650
    38  C    0.049624
    39  C   -0.196847
    40  C   -0.192594
    41  C   -0.172427
    42  C   -0.165302
    43  C   -0.205142
    44  H    0.234609
    45  H    0.141529
    46  H    0.156262
    47  H    0.159868
    48  H    0.154319
    49  O   -0.600161
    50  H    0.450595
    51  C    0.715243
    52  O   -0.688143
    53  O   -0.702185
    54  H    0.432469
    55  C   -0.340172
    56  H    0.143872
    57  H    0.150922
    58  C   -0.080132
    59  H    0.130796
    60  H    0.156373
    61  C   -0.666250
    62  H    0.267439
    63  H    0.200294
    64  H    0.222905
    65  C   -0.285139
    66  H    0.142743
    67  H    0.140475
    68  C   -0.475006
    69  H    0.148305
    70  H    0.149190
    71  H    0.148624
    72  C   -0.334080
    73  H    0.184353
    74  H    0.159990
    75  C   -0.338335
    76  H    0.205244
    77  H    0.164799
 Sum of Mulliken charges =  -0.00000

 Dipole moment (field-independent basis, Debye):
    X=             -3.5608    Y=             -1.5216    Z=             -5.7141  Tot=              6.9026
 Quadrupole moment (field-independent basis, Debye-Ang):
   XX=           -208.5790   YY=           -222.5175   ZZ=           -218.2429
   XY=            -13.4364   XZ=             -4.1305   YZ=             10.7960

 Normal termination of Gaussian 16 at Thu Feb  7 09:51:21 2019.
