 Gaussian 16, Revision A.03,
 Gaussian 16:  ES64L-G16RevA.03 25-Dec-2016

 ------------------------------------------
 #p M062X/6-31G* em=gd3 force int=ultrafine
 ------------------------------------------

 -----
 Title
 -----
 Symbolic Z-matrix:
 Charge =  0 Multiplicity = 1

                         Standard orientation:
 ---------------------------------------------------------------------
 Center     Atomic      Atomic             Coordinates (Angstroms)
 Number     Number       Type             X           Y           Z
 ---------------------------------------------------------------------
      1          6           0       -4.842620    0.465738   -0.517754
      2          6           0       -4.997178   -0.805356   -1.357853
      3          6           0       -3.648431   -1.235305   -1.947307
      4          6           0       -2.659722   -1.470700   -0.809583
      5          6           0       -2.471700   -0.183729    0.031603
      6          6           0       -3.817806    0.274947    0.604284
      7          1           0       -3.748362   -2.141102   -2.555068
      8          1           0       -5.394579   -1.615380   -0.732225
      9          1           0       -5.715731   -0.645078   -2.167838
     10          1           0       -4.510322    1.287011   -1.167526
     11          1           0       -5.809772    0.759322   -0.097031
     12          1           0       -3.041098   -2.262706   -0.157166
     13          1           0       -2.129204    0.594535   -0.663205
     14          1           0       -4.178577   -0.464634    1.327895
     15          1           0       -3.653017    1.219315    1.135965
     16          1           0       -3.289955   -0.428414   -2.600587
     17          7           0       -1.322333   -1.922989   -1.253097
     18          6           0       -0.648470   -1.245799   -2.217735
     19          6           0       -0.619177   -2.731820   -0.419343
     20          6           0        0.703800   -1.329683   -2.358675
     21          1           0       -1.244327   -0.606241   -2.855915
     22          6           0        0.735255   -2.856855   -0.488854
     23          1           0       -1.197550   -3.236032    0.347136
     24          6           0        1.473088   -2.071630   -1.414934
     25          1           0        1.182033   -0.762601   -3.146264
     26          1           0        1.226305   -3.473452    0.250710
     27          7           0        2.803716   -2.031790   -1.394174
     28          6           0        3.548904   -2.553279   -0.238136
     29          1           0        3.422765   -3.636259   -0.152695
     30          1           0        3.171516   -2.056107    0.666493
     31          6           0        3.562559   -0.972905   -2.082559
     32          1           0        3.824075   -1.300057   -3.096325
     33          1           0        2.961652   -0.061421   -2.119105
     34          7           0       -1.376987   -0.321208    0.976223
     35         16           0       -1.415682   -1.220707    2.329527
     36          8           0       -2.609407   -2.071272    2.281294
     37          8           0       -0.116184   -1.882977    2.489765
     38          6           0       -0.637383    2.732983   -0.065897
     39          6           0       -0.096525    2.093517   -1.189872
     40          6           0       -0.763170    2.147044   -2.413124
     41          6           0       -1.991354    2.800087   -2.528270
     42          6           0       -2.544922    3.415702   -1.407432
     43          6           0       -1.865544    3.384439   -0.190339
     44          1           0        0.824970    1.522760   -1.074326
     45          1           0       -0.321217    1.673791   -3.288155
     46          1           0       -2.509853    2.834859   -3.482205
     47          1           0       -3.503423    3.921942   -1.479453
     48          1           0       -2.299355    3.864885    0.684220
     49          8           0        0.502373    1.399647    1.620466
     50          1           0       -0.569866    0.383899    1.023432
     51          6           0        2.152143    0.682354    1.186390
     52          8           0        2.014204    0.165649    0.056671
     53          8           0        2.215112   -0.132433    2.291383
     54          1           0        1.535428   -0.824440    2.173776
     55          6           0        3.079616    1.875503    1.388017
     56          1           0        2.718392    2.496698    2.214413
     57          1           0        4.037935    1.451509    1.720502
     58          6           0        0.076238    2.670781    1.278722
     59          1           0       -0.622327    3.055524    2.044988
     60          1           0        0.916011    3.389482    1.264851
     61          6           0       -1.528273   -0.042395    3.659317
     62          1           0       -0.679547    0.635027    3.515616
     63          1           0       -2.479973    0.484900    3.576288
     64          1           0       -1.457646   -0.583689    4.603912
     65          6           0        3.309202    2.696677    0.122672
     66          1           0        3.683459    2.033621   -0.666112
     67          1           0        2.359887    3.093125   -0.255029
     68          6           0        4.289772    3.843313    0.356358
     69          1           0        4.473424    4.411685   -0.560485
     70          1           0        3.906192    4.539022    1.110738
     71          1           0        5.253170    3.466338    0.717565
     72          6           0        4.985996   -2.138876   -0.533186
     73          1           0        5.590300   -2.093858    0.374766
     74          1           0        5.450925   -2.848035   -1.226813
     75          6           0        4.795303   -0.774384   -1.197398
     76          1           0        4.545407   -0.032839   -0.433357
     77          1           0        5.665616   -0.434786   -1.762794
 ---------------------------------------------------------------------

 SCF Done:  E(RM062X) =  -1991.35573267     A.U. after   15 cycles

 The electronic state is 1-A.
 Alpha  occ. eigenvalues --  -90.14014 -19.61827 -19.61516 -19.59310 -19.55557
 Alpha  occ. eigenvalues --  -19.54089 -14.85282 -14.80343 -14.75141 -10.63517
 Alpha  occ. eigenvalues --  -10.63378 -10.62741 -10.62227 -10.60848 -10.59331
 Alpha  occ. eigenvalues --  -10.58294 -10.58201 -10.57941 -10.57141 -10.56678
 Alpha  occ. eigenvalues --  -10.55831 -10.55676 -10.55638 -10.55162 -10.54780
 Alpha  occ. eigenvalues --  -10.54763 -10.54684 -10.54636 -10.54631 -10.54326
 Alpha  occ. eigenvalues --  -10.54146 -10.53772 -10.53004 -10.51575 -10.51490
 Alpha  occ. eigenvalues --  -10.50716  -8.45010  -6.37231  -6.37178  -6.37066
 Alpha  occ. eigenvalues --   -1.21820  -1.14156  -1.13513  -1.10040  -1.09184
 Alpha  occ. eigenvalues --   -1.04724  -1.03681  -1.01349  -0.95716  -0.94761
 Alpha  occ. eigenvalues --   -0.93468  -0.90232  -0.88724  -0.86160  -0.86017
 Alpha  occ. eigenvalues --   -0.84694  -0.84183  -0.84100  -0.82990  -0.82588
 Alpha  occ. eigenvalues --   -0.76916  -0.76677  -0.75754  -0.72803  -0.72585
 Alpha  occ. eigenvalues --   -0.71607  -0.68327  -0.68127  -0.67774  -0.67148
 Alpha  occ. eigenvalues --   -0.66693  -0.65163  -0.64469  -0.63376  -0.60623
 Alpha  occ. eigenvalues --   -0.60388  -0.59843  -0.59369  -0.57884  -0.57632
 Alpha  occ. eigenvalues --   -0.57075  -0.56358  -0.55324  -0.54551  -0.53938
 Alpha  occ. eigenvalues --   -0.53435  -0.52638  -0.52368  -0.52182  -0.51534
 Alpha  occ. eigenvalues --   -0.51433  -0.51251  -0.50786  -0.50080  -0.49788
 Alpha  occ. eigenvalues --   -0.49270  -0.48858  -0.48290  -0.48157  -0.47986
 Alpha  occ. eigenvalues --   -0.47736  -0.47275  -0.47065  -0.46665  -0.46091
 Alpha  occ. eigenvalues --   -0.45150  -0.45125  -0.44737  -0.43912  -0.43232
 Alpha  occ. eigenvalues --   -0.42422  -0.42312  -0.41377  -0.41215  -0.41180
 Alpha  occ. eigenvalues --   -0.40769  -0.40441  -0.40082  -0.39996  -0.39482
 Alpha  occ. eigenvalues --   -0.39376  -0.38840  -0.38443  -0.37972  -0.37869
 Alpha  occ. eigenvalues --   -0.37374  -0.37131  -0.36853  -0.35633  -0.35471
 Alpha  occ. eigenvalues --   -0.34934  -0.34194  -0.32503  -0.30463  -0.29580
 Alpha  occ. eigenvalues --   -0.28665  -0.28135  -0.27780  -0.26382  -0.24866
 Alpha virt. eigenvalues --   -0.01398   0.00418   0.03523   0.04102   0.10221
 Alpha virt. eigenvalues --    0.10869   0.11536   0.12157   0.13362   0.13421
 Alpha virt. eigenvalues --    0.14057   0.14583   0.15267   0.15405   0.15447

 Mulliken charges:
               1
     1  C   -0.306862
     2  C   -0.307298
     3  C   -0.311627
     4  C   -0.063360
     5  C    0.067776
     6  C   -0.307038
     7  H    0.173700
     8  H    0.162731
     9  H    0.165755
    10  H    0.152578
    11  H    0.163701
    12  H    0.208993
    13  H    0.172143
    14  H    0.189369
    15  H    0.160753
    16  H    0.156788
    17  N   -0.433997
    18  C    0.086911
    19  C    0.087309
    20  C   -0.216281
    21  H    0.205038
    22  C   -0.224377
    23  H    0.247664
    24  C    0.440896
    25  H    0.192405
    26  H    0.209360
    27  N   -0.519638
    28  C   -0.161854
    29  H    0.170845
    30  H    0.212288
    31  C   -0.146307
    32  H    0.164231
    33  H    0.203091
    34  N   -0.817858
    35  S    1.240582
    36  O   -0.608881
    37  O   -0.606445
    38  C    0.053988
    39  C   -0.198247
    40  C   -0.191421
    41  C   -0.174744
    42  C   -0.163448
    43  C   -0.206292
    44  H    0.224072
    45  H    0.137518
    46  H    0.154120
    47  H    0.158132
    48  H    0.153979
    49  O   -0.655719
    50  H    0.453995
    51  C    0.685815
    52  O   -0.614666
    53  O   -0.675740
    54  H    0.449672
    55  C   -0.340231
    56  H    0.165553
    57  H    0.151303
    58  C   -0.051745
    59  H    0.108532
    60  H    0.132171
    61  C   -0.670029
    62  H    0.266829
    63  H    0.198848
    64  H    0.220038
    65  C   -0.288737
    66  H    0.142170
    67  H    0.151851
    68  C   -0.476759
    69  H    0.151612
    70  H    0.153133
    71  H    0.148569
    72  C   -0.334718
    73  H    0.184711
    74  H    0.163308
    75  C   -0.337159
    76  H    0.198845
    77  H    0.167805
 Sum of Mulliken charges =  -0.00000

 Dipole moment (field-independent basis, Debye):
    X=             -2.0558    Y=             -1.9178    Z=             -5.9634  Tot=              6.5929
 Quadrupole moment (field-independent basis, Debye-Ang):
   XX=           -204.4402   YY=           -224.5909   ZZ=           -218.8479
   XY=            -12.7175   XZ=             -3.4562   YZ=             10.5248

 Normal termination of Gaussian 16 at Thu Feb  7 18:48:20 2019.
