 Gaussian 16, Revision A.03,
 Gaussian 16:  ES64L-G16RevA.03 25-Dec-2016

 ------------------------------------------
 #p M062X/6-31G* em=gd3 force int=ultrafine
 ------------------------------------------

 -----
 Title
 -----
 Symbolic Z-matrix:
 Charge =  0 Multiplicity = 1

                         Standard orientation:
 ---------------------------------------------------------------------
 Center     Atomic      Atomic             Coordinates (Angstroms)
 Number     Number       Type             X           Y           Z
 ---------------------------------------------------------------------
      1          6           0       -4.785505    0.443935   -0.519491
      2          6           0       -4.988083   -0.849474   -1.314472
      3          6           0       -3.668931   -1.317896   -1.941210
      4          6           0       -2.647565   -1.526055   -0.829135
      5          6           0       -2.400807   -0.208761   -0.049343
      6          6           0       -3.716056    0.281970    0.565574
      7          1           0       -3.803632   -2.244034   -2.510107
      8          1           0       -5.370443   -1.635252   -0.649781
      9          1           0       -5.736441   -0.702746   -2.099555
     10          1           0       -4.478360    1.242298   -1.207704
     11          1           0       -5.731012    0.757125   -0.064897
     12          1           0       -3.023467   -2.279156   -0.129873
     13          1           0       -2.083631    0.541881   -0.784527
     14          1           0       -4.056856   -0.431216    1.323608
     15          1           0       -3.524437    1.240716    1.059186
     16          1           0       -3.323031   -0.542128   -2.637667
     17          7           0       -1.330622   -2.018164   -1.284833
     18          6           0       -0.647675   -1.338400   -2.244470
     19          6           0       -0.632041   -2.811388   -0.429215
     20          6           0        0.707802   -1.391670   -2.346859
     21          1           0       -1.242817   -0.718206   -2.903448
     22          6           0        0.725024   -2.901169   -0.457026
     23          1           0       -1.219705   -3.314072    0.331376
     24          6           0        1.464525   -2.087708   -1.356803
     25          1           0        1.195974   -0.823315   -3.126921
     26          1           0        1.212834   -3.492766    0.304540
     27          7           0        2.786169   -1.983076   -1.279580
     28          6           0        3.520103   -2.437888   -0.088770
     29          1           0        3.403338   -3.516348    0.048694
     30          1           0        3.126202   -1.893959    0.782392
     31          6           0        3.512217   -0.911324   -1.975447
     32          1           0        3.755650   -1.225833   -2.997738
     33          1           0        2.882343   -0.017928   -1.995775
     34          7           0       -1.277004   -0.306702    0.869034
     35         16           0       -1.323358   -1.150728    2.263755
     36          8           0       -2.529853   -1.983999    2.256243
     37          8           0       -0.034042   -1.821284    2.449379
     38          6           0       -0.589982    2.682901    0.017040
     39          6           0       -0.117971    2.186367   -1.208361
     40          6           0       -0.899364    2.273990   -2.359010
     41          6           0       -2.169365    2.849864   -2.319878
     42          6           0       -2.651398    3.341561   -1.110009
     43          6           0       -1.863865    3.258403    0.038609
     44          1           0        0.840047    1.678845   -1.227619
     45          1           0       -0.506043    1.894764   -3.300038
     46          1           0       -2.772037    2.920919   -3.221154
     47          1           0       -3.637389    3.795223   -1.058388
     48          1           0       -2.248596    3.656177    0.975706
     49          8           0        0.713225    1.545776    1.876962
     50          1           0       -0.298788   -0.061779    0.552662
     51          6           0        1.862070    0.821056    1.244649
     52          8           0        1.467702    0.211466    0.146378
     53          8           0        2.242040   -0.059887    2.285996
     54          1           0        1.549945   -0.745206    2.302307
     55          6           0        3.057719    1.802493    1.132678
     56          1           0        2.999892    2.518873    1.963055
     57          1           0        3.957416    1.204403    1.325640
     58          6           0        0.245809    2.733407    1.300254
     59          1           0       -0.389752    3.195496    2.067065
     60          1           0        1.077688    3.434868    1.136817
     61          6           0       -1.462559    0.065471    3.552548
     62          1           0       -0.590467    0.717059    3.448982
     63          1           0       -2.393585    0.614805    3.402246
     64          1           0       -1.470702   -0.462482    4.507539
     65          6           0        3.235901    2.538863   -0.191957
     66          1           0        3.308167    1.806617   -1.004866
     67          1           0        2.360234    3.152439   -0.429821
     68          6           0        4.479102    3.426892   -0.176243
     69          1           0        4.623249    3.943373   -1.130247
     70          1           0        4.402062    4.187935    0.608839
     71          1           0        5.379837    2.836642    0.029459
     72          6           0        4.955664   -2.030710   -0.400386
     73          1           0        5.560583   -1.946060    0.504124
     74          1           0        5.421815   -2.765919   -1.065661
     75          6           0        4.762551   -0.692992   -1.118224
     76          1           0        4.545986    0.082265   -0.378744
     77          1           0        5.625348   -0.384071   -1.712044
 ---------------------------------------------------------------------

 SCF Done:  E(RM062X) =  -1991.35837083     A.U. after   14 cycles

 The electronic state is 1-A.
 Alpha  occ. eigenvalues --  -90.14210 -19.61811 -19.61786 -19.58659 -19.56690
 Alpha  occ. eigenvalues --  -19.51220 -14.85182 -14.80443 -14.75829 -10.63422
 Alpha  occ. eigenvalues --  -10.62789 -10.62230 -10.62212 -10.60747 -10.59380
 Alpha  occ. eigenvalues --  -10.58419 -10.58003 -10.57964 -10.57172 -10.56889
 Alpha  occ. eigenvalues --  -10.56702 -10.55671 -10.55616 -10.55107 -10.54846
 Alpha  occ. eigenvalues --  -10.54808 -10.54806 -10.54731 -10.54580 -10.54405
 Alpha  occ. eigenvalues --  -10.54341 -10.54327 -10.53063 -10.51492 -10.51446
 Alpha  occ. eigenvalues --  -10.49687  -8.45187  -6.37404  -6.37381  -6.37223
 Alpha  occ. eigenvalues --   -1.22033  -1.13590  -1.13465  -1.10288  -1.09344
 Alpha  occ. eigenvalues --   -1.05856  -1.01777  -0.99296  -0.95760  -0.94994
 Alpha  occ. eigenvalues --   -0.93505  -0.90310  -0.88759  -0.85931  -0.85754
 Alpha  occ. eigenvalues --   -0.84824  -0.84720  -0.84222  -0.83059  -0.82716
 Alpha  occ. eigenvalues --   -0.76674  -0.76250  -0.75832  -0.74345  -0.72813
 Alpha  occ. eigenvalues --   -0.71664  -0.68329  -0.68222  -0.67939  -0.67224
 Alpha  occ. eigenvalues --   -0.66736  -0.65237  -0.64863  -0.63530  -0.60549
 Alpha  occ. eigenvalues --   -0.60404  -0.59776  -0.59065  -0.57805  -0.57606
 Alpha  occ. eigenvalues --   -0.57188  -0.56443  -0.55793  -0.55166  -0.54202
 Alpha  occ. eigenvalues --   -0.53562  -0.52665  -0.52473  -0.52454  -0.51902
 Alpha  occ. eigenvalues --   -0.51553  -0.51013  -0.50716  -0.49885  -0.49540
 Alpha  occ. eigenvalues --   -0.49162  -0.48846  -0.48208  -0.48139  -0.47996
 Alpha  occ. eigenvalues --   -0.47683  -0.47471  -0.46920  -0.46425  -0.46105
 Alpha  occ. eigenvalues --   -0.44884  -0.44740  -0.44155  -0.43860  -0.43265
 Alpha  occ. eigenvalues --   -0.42526  -0.42147  -0.41392  -0.41299  -0.41100
 Alpha  occ. eigenvalues --   -0.40905  -0.40491  -0.39993  -0.39800  -0.39291
 Alpha  occ. eigenvalues --   -0.39252  -0.39075  -0.38435  -0.37980  -0.37605
 Alpha  occ. eigenvalues --   -0.37388  -0.36750  -0.36554  -0.35761  -0.34912
 Alpha  occ. eigenvalues --   -0.34394  -0.33983  -0.31665  -0.31120  -0.29775
 Alpha  occ. eigenvalues --   -0.28874  -0.28604  -0.27659  -0.24805  -0.24383
 Alpha virt. eigenvalues --   -0.01528   0.00396   0.03545   0.03749   0.10134
 Alpha virt. eigenvalues --    0.10974   0.11646   0.12219   0.13167   0.13495
 Alpha virt. eigenvalues --    0.14219   0.14570   0.14758   0.15222   0.15600

 Mulliken charges:
               1
     1  C   -0.306282
     2  C   -0.307163
     3  C   -0.309193
     4  C   -0.060261
     5  C    0.056492
     6  C   -0.311374
     7  H    0.174045
     8  H    0.162870
     9  H    0.165565
    10  H    0.150995
    11  H    0.163427
    12  H    0.209095
    13  H    0.173167
    14  H    0.193191
    15  H    0.163593
    16  H    0.154321
    17  N   -0.430647
    18  C    0.067372
    19  C    0.063968
    20  C   -0.201636
    21  H    0.206384
    22  C   -0.209311
    23  H    0.245129
    24  C    0.445859
    25  H    0.192127
    26  H    0.211499
    27  N   -0.525910
    28  C   -0.170675
    29  H    0.169770
    30  H    0.229085
    31  C   -0.154793
    32  H    0.165434
    33  H    0.206160
    34  N   -0.815272
    35  S    1.253012
    36  O   -0.611737
    37  O   -0.605880
    38  C    0.084069
    39  C   -0.184765
    40  C   -0.189852
    41  C   -0.171293
    42  C   -0.163730
    43  C   -0.212048
    44  H    0.212162
    45  H    0.140506
    46  H    0.154923
    47  H    0.158595
    48  H    0.152470
    49  O   -0.551226
    50  H    0.448304
    51  C    0.724128
    52  O   -0.721660
    53  O   -0.717896
    54  H    0.444345
    55  C   -0.338399
    56  H    0.148614
    57  H    0.151182
    58  C   -0.090909
    59  H    0.139701
    60  H    0.147799
    61  C   -0.663361
    62  H    0.274039
    63  H    0.196355
    64  H    0.217640
    65  C   -0.292233
    66  H    0.135157
    67  H    0.146247
    68  C   -0.473215
    69  H    0.148904
    70  H    0.154229
    71  H    0.145207
    72  C   -0.331932
    73  H    0.187056
    74  H    0.162911
    75  C   -0.343077
    76  H    0.197605
    77  H    0.171025
 Sum of Mulliken charges =  -0.00000

 Dipole moment (field-independent basis, Debye):
    X=             -2.5992    Y=             -1.9504    Z=             -6.3369  Tot=              7.1215
 Quadrupole moment (field-independent basis, Debye-Ang):
   XX=           -205.8324   YY=           -222.6615   ZZ=           -219.9756
   XY=            -12.4364   XZ=             -5.2657   YZ=             10.0545

 Normal termination of Gaussian 16 at Thu Feb  7 14:31:37 2019.
