 Gaussian 16, Revision A.03,
 Gaussian 16:  ES64L-G16RevA.03 25-Dec-2016

 ------------------------------------------
 #p M062X/6-31G* em=gd3 force int=ultrafine
 ------------------------------------------

 -----
 Title
 -----
 Symbolic Z-matrix:
 Charge =  0 Multiplicity = 1

                         Standard orientation:
 ---------------------------------------------------------------------
 Center     Atomic      Atomic             Coordinates (Angstroms)
 Number     Number       Type             X           Y           Z
 ---------------------------------------------------------------------
      1          6           0       -4.783583    0.307582   -0.679758
      2          6           0       -4.912030   -1.005994   -1.456791
      3          6           0       -3.553769   -1.440654   -2.020528
      4          6           0       -2.571691   -1.595149   -0.865015
      5          6           0       -2.397578   -0.255258   -0.102994
      6          6           0       -3.753619    0.200079    0.449055
      7          1           0       -3.634268   -2.379818   -2.578459
      8          1           0       -5.295355   -1.791921   -0.792907
      9          1           0       -5.631826   -0.898455   -2.274300
     10          1           0       -4.476307    1.103620   -1.370526
     11          1           0       -5.756162    0.596614   -0.268185
     12          1           0       -2.952516   -2.345569   -0.165234
     13          1           0       -2.075440    0.490878   -0.840914
     14          1           0       -4.101264   -0.512589    1.204160
     15          1           0       -3.615580    1.172123    0.933960
     16          1           0       -3.206405   -0.664533   -2.715799
     17          7           0       -1.225284   -2.057838   -1.260345
     18          6           0       -0.539720   -1.414978   -2.241856
     19          6           0       -0.526543   -2.789141   -0.350561
     20          6           0        0.818426   -1.447264   -2.319747
     21          1           0       -1.134948   -0.846916   -2.945957
     22          6           0        0.832312   -2.843344   -0.344815
     23          1           0       -1.118892   -3.272479    0.418751
     24          6           0        1.570313   -2.066056   -1.276872
     25          1           0        1.307719   -0.916121   -3.124666
     26          1           0        1.318560   -3.380446    0.457229
     27          7           0        2.888964   -1.930820   -1.184701
     28          6           0        3.612598   -2.284910    0.046751
     29          1           0        3.512605   -3.353056    0.258646
     30          1           0        3.194144   -1.690950    0.873291
     31          6           0        3.611707   -0.913311   -1.957202
     32          1           0        3.862766   -1.304695   -2.950737
     33          1           0        2.976820   -0.028807   -2.061126
     34          7           0       -1.308495   -0.297009    0.859881
     35         16           0       -1.393321   -1.107652    2.269801
     36          8           0       -2.576986   -1.973137    2.243562
     37          8           0       -0.097460   -1.743128    2.526737
     38          6           0       -0.653217    2.706511    0.031244
     39          6           0       -0.180415    2.246174   -1.207754
     40          6           0       -0.980848    2.318126   -2.345778
     41          6           0       -2.272409    2.842314   -2.278658
     42          6           0       -2.756959    3.293869   -1.054639
     43          6           0       -1.949043    3.227200    0.081099
     44          1           0        0.796750    1.780165   -1.251820
     45          1           0       -0.587456    1.967904   -3.297644
     46          1           0       -2.890987    2.902516   -3.169975
     47          1           0       -3.760703    3.703920   -0.981526
     48          1           0       -2.334669    3.595433    1.029926
     49          8           0        0.668136    1.602760    1.897047
     50          1           0       -0.312821   -0.053901    0.558904
     51          6           0        1.785753    0.855352    1.252456
     52          8           0        1.360662    0.240408    0.166340
     53          8           0        2.179248   -0.019360    2.295438
     54          1           0        1.465974   -0.681277    2.358030
     55          6           0        3.005299    1.804054    1.098385
     56          1           0        2.987667    2.533846    1.917512
     57          1           0        3.886940    1.175981    1.283209
     58          6           0        0.207481    2.781780    1.295306
     59          1           0       -0.403998    3.276030    2.061065
     60          1           0        1.048291    3.461530    1.094901
     61          6           0       -1.609917    0.139963    3.517604
     62          1           0       -0.750538    0.809954    3.425706
     63          1           0       -2.547906    0.661102    3.317796
     64          1           0       -1.639299   -0.358959    4.487710
     65          6           0        3.184547    2.507120   -0.244086
     66          1           0        3.100180    1.764549   -1.045026
     67          1           0        2.382746    3.230561   -0.429331
     68          6           0        4.531429    3.224100   -0.334226
     69          1           0        4.660455    3.725009   -1.298824
     70          1           0        4.623211    3.980755    0.452260
     71          1           0        5.361810    2.520113   -0.205526
     72          6           0        5.047822   -1.881690   -0.274913
     73          1           0        5.632843   -1.705913    0.629719
     74          1           0        5.539188   -2.665921   -0.861001
     75          6           0        4.857006   -0.616486   -1.115719
     76          1           0        4.643130    0.227438   -0.455459
     77          1           0        5.723462   -0.365900   -1.731408
 ---------------------------------------------------------------------

 SCF Done:  E(RM062X) =  -1991.35895180     A.U. after   14 cycles

 The electronic state is 1-A.
 Alpha  occ. eigenvalues --  -90.14044 -19.61664 -19.61652 -19.58802 -19.56744
 Alpha  occ. eigenvalues --  -19.51400 -14.85117 -14.80458 -14.75449 -10.63373
 Alpha  occ. eigenvalues --  -10.62746 -10.62330 -10.62050 -10.60646 -10.59201
 Alpha  occ. eigenvalues --  -10.58740 -10.57902 -10.57875 -10.57046 -10.56857
 Alpha  occ. eigenvalues --  -10.56653 -10.55599 -10.55582 -10.55203 -10.55061
 Alpha  occ. eigenvalues --  -10.54748 -10.54708 -10.54630 -10.54474 -10.54314
 Alpha  occ. eigenvalues --  -10.54237 -10.54177 -10.53101 -10.51685 -10.51581
 Alpha  occ. eigenvalues --  -10.49809  -8.45024  -6.37239  -6.37218  -6.37062
 Alpha  occ. eigenvalues --   -1.21878  -1.13666  -1.13455  -1.10125  -1.09358
 Alpha  occ. eigenvalues --   -1.05905  -1.01577  -0.99423  -0.95671  -0.94914
 Alpha  occ. eigenvalues --   -0.93453  -0.90224  -0.88756  -0.85918  -0.85808
 Alpha  occ. eigenvalues --   -0.84772  -0.84634  -0.84340  -0.82995  -0.82595
 Alpha  occ. eigenvalues --   -0.76636  -0.76373  -0.75828  -0.74395  -0.72696
 Alpha  occ. eigenvalues --   -0.71553  -0.68346  -0.68294  -0.67899  -0.67139
 Alpha  occ. eigenvalues --   -0.66755  -0.65180  -0.64863  -0.63519  -0.60571
 Alpha  occ. eigenvalues --   -0.60405  -0.59793  -0.58819  -0.57845  -0.57536
 Alpha  occ. eigenvalues --   -0.57119  -0.56417  -0.55685  -0.55156  -0.54165
 Alpha  occ. eigenvalues --   -0.53437  -0.52623  -0.52385  -0.52342  -0.51857
 Alpha  occ. eigenvalues --   -0.51515  -0.51093  -0.50952  -0.49837  -0.49589
 Alpha  occ. eigenvalues --   -0.49156  -0.48800  -0.48208  -0.48107  -0.48062
 Alpha  occ. eigenvalues --   -0.47613  -0.47419  -0.46888  -0.46472  -0.46087
 Alpha  occ. eigenvalues --   -0.44931  -0.44650  -0.44067  -0.43877  -0.43244
 Alpha  occ. eigenvalues --   -0.42430  -0.42072  -0.41579  -0.41441  -0.41203
 Alpha  occ. eigenvalues --   -0.40874  -0.40436  -0.40019  -0.39858  -0.39525
 Alpha  occ. eigenvalues --   -0.39236  -0.39038  -0.38428  -0.37868  -0.37579
 Alpha  occ. eigenvalues --   -0.37346  -0.36728  -0.36564  -0.35673  -0.34870
 Alpha  occ. eigenvalues --   -0.34336  -0.33870  -0.31763  -0.30953  -0.29696
 Alpha  occ. eigenvalues --   -0.28882  -0.28532  -0.27553  -0.25001  -0.24530
 Alpha virt. eigenvalues --   -0.01390   0.00510   0.03637   0.03854   0.10221
 Alpha virt. eigenvalues --    0.11066   0.11549   0.12076   0.13215   0.13542
 Alpha virt. eigenvalues --    0.14220   0.14680   0.14830   0.15379   0.15601

 Mulliken charges:
               1
     1  C   -0.306049
     2  C   -0.306867
     3  C   -0.310385
     4  C   -0.058965
     5  C    0.056902
     6  C   -0.311708
     7  H    0.173722
     8  H    0.162887
     9  H    0.165043
    10  H    0.150410
    11  H    0.162867
    12  H    0.208350
    13  H    0.172373
    14  H    0.193790
    15  H    0.163251
    16  H    0.153619
    17  N   -0.432861
    18  C    0.070466
    19  C    0.064932
    20  C   -0.205771
    21  H    0.207068
    22  C   -0.209383
    23  H    0.245869
    24  C    0.451821
    25  H    0.190693
    26  H    0.211772
    27  N   -0.529848
    28  C   -0.176761
    29  H    0.169953
    30  H    0.237898
    31  C   -0.154065
    32  H    0.168613
    33  H    0.200246
    34  N   -0.817331
    35  S    1.254000
    36  O   -0.611526
    37  O   -0.609736
    38  C    0.091729
    39  C   -0.176895
    40  C   -0.188743
    41  C   -0.170458
    42  C   -0.163609
    43  C   -0.212027
    44  H    0.202271
    45  H    0.141461
    46  H    0.154451
    47  H    0.158091
    48  H    0.151963
    49  O   -0.547714
    50  H    0.449837
    51  C    0.728364
    52  O   -0.724490
    53  O   -0.718316
    54  H    0.445805
    55  C   -0.337223
    56  H    0.150490
    57  H    0.147700
    58  C   -0.095210
    59  H    0.141462
    60  H    0.146625
    61  C   -0.662562
    62  H    0.270322
    63  H    0.196305
    64  H    0.217296
    65  C   -0.295893
    66  H    0.141985
    67  H    0.147069
    68  C   -0.476360
    69  H    0.149538
    70  H    0.156383
    71  H    0.144102
    72  C   -0.331878
    73  H    0.187532
    74  H    0.163821
    75  C   -0.344521
    76  H    0.193951
    77  H    0.172054
 Sum of Mulliken charges =  -0.00000

 Dipole moment (field-independent basis, Debye):
    X=             -2.0257    Y=             -1.9590    Z=             -6.4936  Tot=              7.0787
 Quadrupole moment (field-independent basis, Debye-Ang):
   XX=           -204.5769   YY=           -223.1750   ZZ=           -219.9693
   XY=            -12.0981   XZ=             -5.1523   YZ=             10.2614

 Normal termination of Gaussian 16 at Thu Feb  7 17:25:32 2019.
