 Gaussian 16, Revision A.03,
 Gaussian 16:  ES64L-G16RevA.03 25-Dec-2016

 ------------------------------------------
 #p M062X/6-31G* em=gd3 force int=ultrafine
 ------------------------------------------

 -----
 Title
 -----
 Symbolic Z-matrix:
 Charge =  0 Multiplicity = 1

                         Standard orientation:
 ---------------------------------------------------------------------
 Center     Atomic      Atomic             Coordinates (Angstroms)
 Number     Number       Type             X           Y           Z
 ---------------------------------------------------------------------
      1          6           0       -4.842065    0.517947   -0.521214
      2          6           0       -5.010145   -0.749561   -1.364158
      3          6           0       -3.666629   -1.193476   -1.955463
      4          6           0       -2.680392   -1.445067   -0.819332
      5          6           0       -2.482437   -0.163151    0.025453
      6          6           0       -3.820608    0.311962    0.600326
      7          1           0       -3.776983   -2.095593   -2.566580
      8          1           0       -5.415911   -1.556295   -0.739669
      9          1           0       -5.727387   -0.579541   -2.173118
     10          1           0       -4.499769    1.337236   -1.168296
     11          1           0       -5.805626    0.821455   -0.099558
     12          1           0       -3.070458   -2.234933   -0.169310
     13          1           0       -2.125692    0.613871   -0.663356
     14          1           0       -4.190355   -0.424378    1.322437
     15          1           0       -3.642266    1.252518    1.134432
     16          1           0       -3.298078   -0.388596   -2.605581
     17          7           0       -1.347626   -1.908244   -1.262766
     18          6           0       -0.664913   -1.233023   -2.224427
     19          6           0       -0.651526   -2.725951   -0.429915
     20          6           0        0.686283   -1.325049   -2.360702
     21          1           0       -1.254555   -0.589111   -2.863988
     22          6           0        0.701449   -2.858681   -0.494406
     23          1           0       -1.235833   -3.230578    0.331703
     24          6           0        1.448481   -2.072556   -1.414108
     25          1           0        1.171635   -0.760269   -3.145587
     26          1           0        1.186588   -3.482530    0.242928
     27          7           0        2.776857   -2.044995   -1.391788
     28          6           0        3.518169   -2.578217   -0.238312
     29          1           0        3.376907   -3.659607   -0.154150
     30          1           0        3.150103   -2.071515    0.664844
     31          6           0        3.546742   -0.993539   -2.078866
     32          1           0        3.801691   -1.321756   -3.094320
     33          1           0        2.955711   -0.075551   -2.106777
     34          7           0       -1.398839   -0.314510    0.979387
     35         16           0       -1.435433   -1.219051    2.332873
     36          8           0       -2.650609   -2.036068    2.284477
     37          8           0       -0.151077   -1.906193    2.479318
     38          6           0       -0.575103    2.706428   -0.062001
     39          6           0       -0.054390    2.079229   -1.201456
     40          6           0       -0.736923    2.156101   -2.414803
     41          6           0       -1.956737    2.826740   -2.507451
     42          6           0       -2.488532    3.435712   -1.372165
     43          6           0       -1.796649    3.377675   -0.162547
     44          1           0        0.861929    1.496287   -1.097528
     45          1           0       -0.310318    1.688101   -3.299924
     46          1           0       -2.485089    2.880884   -3.455227
     47          1           0       -3.439676    3.957922   -1.428902
     48          1           0       -2.216609    3.856600    0.719844
     49          8           0        0.600164    1.361809    1.627098
     50          1           0       -0.555222    0.304819    0.954611
     51          6           0        2.062824    0.724243    1.200647
     52          8           0        1.964907    0.180600    0.050895
     53          8           0        2.214792   -0.143651    2.289303
     54          1           0        1.547981   -0.844002    2.165769
     55          6           0        3.083635    1.856164    1.386070
     56          1           0        2.787609    2.498712    2.224004
     57          1           0        4.019688    1.370804    1.693277
     58          6           0        0.162726    2.638637    1.269404
     59          1           0       -0.527508    2.996201    2.051702
     60          1           0        0.995785    3.358167    1.256580
     61          6           0       -1.518481   -0.040357    3.663585
     62          1           0       -0.651640    0.614620    3.528522
     63          1           0       -2.457009    0.510022    3.581288
     64          1           0       -1.462357   -0.586415    4.606435
     65          6           0        3.339356    2.670702    0.120986
     66          1           0        3.701026    1.996027   -0.663412
     67          1           0        2.403308    3.088761   -0.267812
     68          6           0        4.343012    3.796269    0.357721
     69          1           0        4.541705    4.362381   -0.557512
     70          1           0        3.971043    4.498620    1.112123
     71          1           0        5.296767    3.399334    0.722976
     72          6           0        4.959586   -2.183990   -0.538919
     73          1           0        5.568410   -2.151256    0.366503
     74          1           0        5.411706   -2.896654   -1.237875
     75          6           0        4.782597   -0.813793   -1.194821
     76          1           0        4.535801   -0.076547   -0.425581
     77          1           0        5.655741   -0.479509   -1.759211
 ---------------------------------------------------------------------

 SCF Done:  E(RM062X) =  -1991.35537083     A.U. after   15 cycles

 The electronic state is 1-A.
 Alpha  occ. eigenvalues --  -90.14527 -19.62233 -19.61898 -19.57964 -19.57579
 Alpha  occ. eigenvalues --  -19.51470 -14.85185 -14.80124 -14.76019 -10.63203
 Alpha  occ. eigenvalues --  -10.62622 -10.62609 -10.62133 -10.61006 -10.59705
 Alpha  occ. eigenvalues --  -10.57907 -10.57819 -10.57786 -10.57000 -10.56816
 Alpha  occ. eigenvalues --  -10.56800 -10.56303 -10.55806 -10.55057 -10.55004
 Alpha  occ. eigenvalues --  -10.54981 -10.54842 -10.54802 -10.54609 -10.54607
 Alpha  occ. eigenvalues --  -10.54321 -10.54191 -10.53097 -10.51168 -10.51082
 Alpha  occ. eigenvalues --  -10.49818  -8.45508  -6.37733  -6.37680  -6.37562
 Alpha  occ. eigenvalues --   -1.22337  -1.13445  -1.12802  -1.10533  -1.08956
 Alpha  occ. eigenvalues --   -1.05871  -1.02137  -1.01017  -0.95783  -0.95125
 Alpha  occ. eigenvalues --   -0.93474  -0.90126  -0.88602  -0.86408  -0.85533
 Alpha  occ. eigenvalues --   -0.84814  -0.84725  -0.83844  -0.83261  -0.82940
 Alpha  occ. eigenvalues --   -0.76582  -0.76180  -0.75594  -0.73858  -0.73128
 Alpha  occ. eigenvalues --   -0.71713  -0.68213  -0.68086  -0.67789  -0.67438
 Alpha  occ. eigenvalues --   -0.66400  -0.65421  -0.64836  -0.63341  -0.60492
 Alpha  occ. eigenvalues --   -0.60326  -0.59920  -0.59360  -0.57929  -0.57672
 Alpha  occ. eigenvalues --   -0.57185  -0.56348  -0.55570  -0.54936  -0.54304
 Alpha  occ. eigenvalues --   -0.53515  -0.52955  -0.52587  -0.52333  -0.52013
 Alpha  occ. eigenvalues --   -0.51609  -0.50916  -0.50189  -0.49986  -0.49451
 Alpha  occ. eigenvalues --   -0.49191  -0.48881  -0.48493  -0.48172  -0.48065
 Alpha  occ. eigenvalues --   -0.47716  -0.47572  -0.47095  -0.46407  -0.45919
 Alpha  occ. eigenvalues --   -0.45342  -0.45164  -0.44410  -0.44171  -0.43181
 Alpha  occ. eigenvalues --   -0.42470  -0.42307  -0.41229  -0.40991  -0.40792
 Alpha  occ. eigenvalues --   -0.40578  -0.40423  -0.40146  -0.39929  -0.39464
 Alpha  occ. eigenvalues --   -0.39038  -0.39014  -0.38698  -0.38206  -0.37680
 Alpha  occ. eigenvalues --   -0.37492  -0.36606  -0.36440  -0.35929  -0.35037
 Alpha  occ. eigenvalues --   -0.34646  -0.34293  -0.32097  -0.31051  -0.29921
 Alpha  occ. eigenvalues --   -0.29044  -0.28706  -0.27844  -0.24912  -0.24402
 Alpha virt. eigenvalues --   -0.01260   0.00558   0.03267   0.03698   0.10203
 Alpha virt. eigenvalues --    0.10651   0.11414   0.12503   0.13202   0.13335
 Alpha virt. eigenvalues --    0.14192   0.14396   0.15120   0.15523   0.15551

 Mulliken charges:
               1
     1  C   -0.306667
     2  C   -0.307721
     3  C   -0.311628
     4  C   -0.061432
     5  C    0.066238
     6  C   -0.306848
     7  H    0.174963
     8  H    0.163141
     9  H    0.166519
    10  H    0.152193
    11  H    0.164532
    12  H    0.208294
    13  H    0.173629
    14  H    0.191143
    15  H    0.159998
    16  H    0.156758
    17  N   -0.436583
    18  C    0.082830
    19  C    0.083533
    20  C   -0.212882
    21  H    0.203174
    22  C   -0.222826
    23  H    0.245049
    24  C    0.447745
    25  H    0.192146
    26  H    0.209543
    27  N   -0.519322
    28  C   -0.162960
    29  H    0.168188
    30  H    0.218117
    31  C   -0.145426
    32  H    0.161338
    33  H    0.205075
    34  N   -0.815635
    35  S    1.237498
    36  O   -0.605557
    37  O   -0.594341
    38  C    0.049903
    39  C   -0.198642
    40  C   -0.192637
    41  C   -0.172894
    42  C   -0.164824
    43  C   -0.205507
    44  H    0.234609
    45  H    0.140358
    46  H    0.155911
    47  H    0.159634
    48  H    0.154444
    49  O   -0.618232
    50  H    0.453521
    51  C    0.709376
    52  O   -0.668903
    53  O   -0.695189
    54  H    0.436308
    55  C   -0.338276
    56  H    0.147818
    57  H    0.150777
    58  C   -0.072893
    59  H    0.125561
    60  H    0.152352
    61  C   -0.667210
    62  H    0.265072
    63  H    0.200140
    64  H    0.222954
    65  C   -0.285906
    66  H    0.143504
    67  H    0.142504
    68  C   -0.475489
    69  H    0.149038
    70  H    0.149550
    71  H    0.148778
    72  C   -0.334647
    73  H    0.184318
    74  H    0.160935
    75  C   -0.338336
    76  H    0.205045
    77  H    0.165359
 Sum of Mulliken charges =  -0.00000

 Dipole moment (field-independent basis, Debye):
    X=             -3.1966    Y=             -1.5320    Z=             -5.7800  Tot=              6.7804
 Quadrupole moment (field-independent basis, Debye-Ang):
   XX=           -207.3575   YY=           -223.2700   ZZ=           -218.1419
   XY=            -13.6188   XZ=             -4.3289   YZ=             10.7734

 Normal termination of Gaussian 16 at Thu Feb  7 08:46:14 2019.
