 Gaussian 16, Revision A.03,
 Gaussian 16:  ES64L-G16RevA.03 25-Dec-2016

 ------------------------------------------
 #p M062X/6-31G* em=gd3 force int=ultrafine
 ------------------------------------------

 -----
 Title
 -----
 Symbolic Z-matrix:
 Charge =  0 Multiplicity = 1

                         Standard orientation:
 ---------------------------------------------------------------------
 Center     Atomic      Atomic             Coordinates (Angstroms)
 Number     Number       Type             X           Y           Z
 ---------------------------------------------------------------------
      1          6           0       -4.842121    0.478895   -0.518994
      2          6           0       -4.999910   -0.791453   -1.359635
      3          6           0       -3.652399   -1.224968   -1.949372
      4          6           0       -2.664367   -1.464313   -0.811979
      5          6           0       -2.474209   -0.178506    0.029858
      6          6           0       -3.818253    0.284482    0.603010
      7          1           0       -3.754852   -2.129949   -2.557814
      8          1           0       -5.399455   -1.600569   -0.734214
      9          1           0       -5.718062   -0.628844   -2.169457
     10          1           0       -4.507248    1.299607   -1.168149
     11          1           0       -5.808412    0.774998   -0.098142
     12          1           0       -3.048057   -2.255643   -0.160048
     13          1           0       -2.127660    0.599378   -0.663283
     14          1           0       -4.181261   -0.454239    1.326320
     15          1           0       -3.650068    1.227978    1.135196
     16          1           0       -3.291308   -0.418677   -2.601946
     17          7           0       -1.328175   -1.919461   -1.255242
     18          6           0       -0.651920   -1.243027   -2.219282
     19          6           0       -0.626858   -2.730603   -0.421622
     20          6           0        0.700002   -1.329206   -2.359067
     21          1           0       -1.246148   -0.602405   -2.857923
     22          6           0        0.727124   -2.857776   -0.489826
     23          1           0       -1.206816   -3.234773    0.343672
     24          6           0        1.467474   -2.072390   -1.414330
     25          1           0        1.180140   -0.763025   -3.146134
     26          1           0        1.216638   -3.476325    0.249110
     27          7           0        2.797398   -2.035926   -1.393200
     28          6           0        3.541515   -2.560360   -0.237696
     29          1           0        3.411586   -3.642995   -0.152683
     30          1           0        3.166218   -2.060485    0.666295
     31          6           0        3.559273   -0.979231   -2.081494
     32          1           0        3.819271   -1.307103   -3.095537
     33          1           0        2.960875   -0.066108   -2.116091
     34          7           0       -1.382750   -0.319858    0.977298
     35         16           0       -1.420803   -1.220545    2.330994
     36          8           0       -2.620075   -2.062367    2.281628
     37          8           0       -0.125401   -1.889015    2.488237
     38          6           0       -0.621728    2.726393   -0.065370
     39          6           0       -0.085844    2.089413   -1.192805
     40          6           0       -0.756001    2.148593   -2.413912
     41          6           0       -1.981898    2.806294   -2.524171
     42          6           0       -2.530303    3.420870   -1.400091
     43          6           0       -1.848170    3.383341   -0.184438
     44          1           0        0.834062    1.515154   -1.079321
     45          1           0       -0.317546    1.676170   -3.291036
     46          1           0       -2.502529    2.845542   -3.476838
     47          1           0       -3.486955    3.931199   -1.469132
     48          1           0       -2.279178    3.864241    0.691367
     49          8           0        0.532108    1.389866    1.619495
     50          1           0       -0.567713    0.363037    1.005684
     51          6           0        2.122294    0.697041    1.190398
     52          8           0        2.000940    0.170359    0.055356
     53          8           0        2.211757   -0.133045    2.291758
     54          1           0        1.537557   -0.828909    2.171951
     55          6           0        3.078460    1.872014    1.388361
     56          1           0        2.735673    2.500025    2.217909
     57          1           0        4.030712    1.430045    1.714008
     58          6           0        0.099528    2.662662    1.275272
     59          1           0       -0.597467    3.037247    2.046882
     60          1           0        0.935483    3.383568    1.262474
     61          6           0       -1.526668   -0.041281    3.660192
     62          1           0       -0.673550    0.630803    3.518568
     63          1           0       -2.475445    0.491201    3.577005
     64          1           0       -1.459262   -0.583175    4.604683
     65          6           0        3.316142    2.690654    0.122881
     66          1           0        3.687566    2.023877   -0.664024
     67          1           0        2.370429    3.092369   -0.258665
     68          6           0        4.302565    3.831970    0.357141
     69          1           0        4.489945    4.399771   -0.559338
     70          1           0        3.921867    4.529320    1.111557
     71          1           0        5.263584    3.449981    0.719385
     72          6           0        4.979766   -2.151078   -0.533967
     73          1           0        5.584945   -2.108859    0.373524
     74          1           0        5.441766   -2.861325   -1.228594
     75          6           0        4.792625   -0.785280   -1.196414
     76          1           0        4.543056   -0.044730   -0.431299
     77          1           0        5.663785   -0.447240   -1.761514
 ---------------------------------------------------------------------

 SCF Done:  E(RM062X) =  -1991.35543600     A.U. after   15 cycles

 The electronic state is 1-A.
 Alpha  occ. eigenvalues --  -90.14184 -19.61966 -19.61643 -19.58746 -19.56288
 Alpha  occ. eigenvalues --  -19.53244 -14.85250 -14.80272 -14.75427 -10.63322
 Alpha  occ. eigenvalues --  -10.63237 -10.62703 -10.62196 -10.60901 -10.59455
 Alpha  occ. eigenvalues --  -10.58169 -10.58077 -10.57891 -10.57095 -10.56724
 Alpha  occ. eigenvalues --  -10.56024 -10.55994 -10.55694 -10.55044 -10.54859
 Alpha  occ. eigenvalues --  -10.54855 -10.54781 -10.54703 -10.54489 -10.54422
 Alpha  occ. eigenvalues --  -10.54299 -10.53947 -10.53039 -10.51415 -10.51372
 Alpha  occ. eigenvalues --  -10.50417  -8.45176  -6.37399  -6.37346  -6.37232
 Alpha  occ. eigenvalues --   -1.21996  -1.13601  -1.13469  -1.10205  -1.09107
 Alpha  occ. eigenvalues --   -1.05022  -1.02935  -1.01607  -0.95735  -0.94875
 Alpha  occ. eigenvalues --   -0.93475  -0.90198  -0.88683  -0.86152  -0.85949
 Alpha  occ. eigenvalues --   -0.84732  -0.84286  -0.84072  -0.83079  -0.82709
 Alpha  occ. eigenvalues --   -0.76663  -0.76644  -0.75702  -0.72980  -0.72881
 Alpha  occ. eigenvalues --   -0.71644  -0.68274  -0.68052  -0.67824  -0.67236
 Alpha  occ. eigenvalues --   -0.66584  -0.65249  -0.64602  -0.63369  -0.60510
 Alpha  occ. eigenvalues --   -0.60354  -0.59756  -0.59475  -0.57782  -0.57752
 Alpha  occ. eigenvalues --   -0.57153  -0.56344  -0.55404  -0.54657  -0.54048
 Alpha  occ. eigenvalues --   -0.53458  -0.52743  -0.52443  -0.52174  -0.51606
 Alpha  occ. eigenvalues --   -0.51483  -0.51174  -0.50578  -0.50049  -0.49685
 Alpha  occ. eigenvalues --   -0.49170  -0.48900  -0.48300  -0.48202  -0.48007
 Alpha  occ. eigenvalues --   -0.47764  -0.47346  -0.46959  -0.46784  -0.46046
 Alpha  occ. eigenvalues --   -0.45168  -0.45064  -0.44728  -0.44027  -0.43208
 Alpha  occ. eigenvalues --   -0.42450  -0.42293  -0.41255  -0.41218  -0.41033
 Alpha  occ. eigenvalues --   -0.40589  -0.40463  -0.40135  -0.40003  -0.39486
 Alpha  occ. eigenvalues --   -0.39273  -0.38890  -0.38529  -0.38016  -0.37833
 Alpha  occ. eigenvalues --   -0.37397  -0.36961  -0.36699  -0.35730  -0.35218
 Alpha  occ. eigenvalues --   -0.34934  -0.34234  -0.32376  -0.30643  -0.29681
 Alpha  occ. eigenvalues --   -0.28676  -0.28200  -0.27839  -0.26087  -0.24848
 Alpha virt. eigenvalues --   -0.01353   0.00464   0.03439   0.03972   0.10220
 Alpha virt. eigenvalues --    0.10798   0.11508   0.12284   0.13320   0.13390
 Alpha virt. eigenvalues --    0.14116   0.14506   0.15234   0.15469   0.15634

 Mulliken charges:
               1
     1  C   -0.306815
     2  C   -0.307437
     3  C   -0.311618
     4  C   -0.062837
     5  C    0.067271
     6  C   -0.306950
     7  H    0.174117
     8  H    0.162868
     9  H    0.166008
    10  H    0.152492
    11  H    0.163972
    12  H    0.208855
    13  H    0.172684
    14  H    0.189869
    15  H    0.160443
    16  H    0.156791
    17  N   -0.434755
    18  C    0.085714
    19  C    0.086228
    20  C   -0.215263
    21  H    0.204418
    22  C   -0.223933
    23  H    0.246865
    24  C    0.443106
    25  H    0.192323
    26  H    0.209404
    27  N   -0.519535
    28  C   -0.162124
    29  H    0.169967
    30  H    0.214195
    31  C   -0.146022
    32  H    0.163312
    33  H    0.203690
    34  N   -0.817440
    35  S    1.239597
    36  O   -0.607851
    37  O   -0.602464
    38  C    0.052567
    39  C   -0.198669
    40  C   -0.191769
    41  C   -0.174193
    42  C   -0.163878
    43  C   -0.206048
    44  H    0.227709
    45  H    0.138446
    46  H    0.154702
    47  H    0.158625
    48  H    0.154128
    49  O   -0.645011
    50  H    0.454091
    51  C    0.692856
    52  O   -0.631255
    53  O   -0.681856
    54  H    0.445688
    55  C   -0.338828
    56  H    0.159760
    57  H    0.150810
    58  C   -0.058122
    59  H    0.113741
    60  H    0.138640
    61  C   -0.669311
    62  H    0.266258
    63  H    0.199314
    64  H    0.221091
    65  C   -0.287898
    66  H    0.142634
    67  H    0.148768
    68  C   -0.476312
    69  H    0.150757
    70  H    0.151959
    71  H    0.148610
    72  C   -0.334729
    73  H    0.184592
    74  H    0.162530
    75  C   -0.337475
    76  H    0.200964
    77  H    0.166974
 Sum of Mulliken charges =  -0.00000

 Dipole moment (field-independent basis, Debye):
    X=             -2.4338    Y=             -1.8040    Z=             -5.9025  Tot=              6.6346
 Quadrupole moment (field-independent basis, Debye-Ang):
   XX=           -205.3405   YY=           -224.1860   ZZ=           -218.6094
   XY=            -13.0253   XZ=             -3.7701   YZ=             10.5915

 Normal termination of Gaussian 16 at Thu Feb  7 18:37:59 2019.
