 Gaussian 16, Revision A.03,
 Gaussian 16:  ES64L-G16RevA.03 25-Dec-2016

 ------------------------------------------
 #p M062X/6-31G* em=gd3 force int=ultrafine
 ------------------------------------------

 -----
 Title
 -----
 Symbolic Z-matrix:
 Charge =  0 Multiplicity = 1

                         Standard orientation:
 ---------------------------------------------------------------------
 Center     Atomic      Atomic             Coordinates (Angstroms)
 Number     Number       Type             X           Y           Z
 ---------------------------------------------------------------------
      1          6           0       -4.847820    0.476465   -0.539280
      2          6           0       -5.034701   -0.838803   -1.301732
      3          6           0       -3.704738   -1.320176   -1.893782
      4          6           0       -2.695312   -1.495094   -0.764265
      5          6           0       -2.471685   -0.157819   -0.016031
      6          6           0       -3.796546    0.344038    0.567417
      7          1           0       -3.826932   -2.261226   -2.440511
      8          1           0       -5.427222   -1.606738   -0.622295
      9          1           0       -5.769612   -0.715716   -2.103427
     10          1           0       -4.529395    1.257101   -1.243266
     11          1           0       -5.801525    0.799989   -0.109879
     12          1           0       -3.073567   -2.234889   -0.051529
     13          1           0       -2.147514    0.575784   -0.765248
     14          1           0       -4.147054   -0.349847    1.338566
     15          1           0       -3.613708    1.315274    1.040130
     16          1           0       -3.350974   -0.561535   -2.604866
     17          7           0       -1.372998   -1.990681   -1.199516
     18          6           0       -0.692126   -1.349005   -2.186815
     19          6           0       -0.675797   -2.772324   -0.332696
     20          6           0        0.659754   -1.434815   -2.311821
     21          1           0       -1.284907   -0.733796   -2.851999
     22          6           0        0.677935   -2.894021   -0.383768
     23          1           0       -1.259697   -3.243126    0.450652
     24          6           0        1.420856   -2.130267   -1.324865
     25          1           0        1.145758   -0.896128   -3.114222
     26          1           0        1.166105   -3.476914    0.384221
     27          7           0        2.746544   -2.073556   -1.285608
     28          6           0        3.488279   -2.544494   -0.105508
     29          1           0        3.351845   -3.620793    0.032278
     30          1           0        3.117500   -1.992037    0.770041
     31          6           0        3.497696   -1.032428   -2.005007
     32          1           0        3.747242   -1.381462   -3.014812
     33          1           0        2.890040   -0.125205   -2.050532
     34          7           0       -1.360280   -0.216678    0.921167
     35         16           0       -1.373139   -1.042246    2.333842
     36          8           0       -2.609008   -1.828023    2.373140
     37          8           0       -0.101634   -1.751783    2.481587
     38          6           0       -0.529949    2.642730   -0.089987
     39          6           0       -0.056515    2.071956   -1.281154
     40          6           0       -0.818015    2.134239   -2.447681
     41          6           0       -2.065647    2.757438   -2.456907
     42          6           0       -2.546800    3.325235   -1.279423
     43          6           0       -1.781715    3.266168   -0.114538
     44          1           0        0.885763    1.531728   -1.252633
     45          1           0       -0.425632    1.696469   -3.363697
     46          1           0       -2.651483    2.807796   -3.370614
     47          1           0       -3.514864    3.818521   -1.267167
     48          1           0       -2.166444    3.718552    0.797454
     49          8           0        0.743422    1.490281    1.766066
     50          1           0       -0.407359    0.047682    0.612573
     51          6           0        1.966345    0.795408    1.193523
     52          8           0        1.658353    0.188856    0.078360
     53          8           0        2.291012   -0.078587    2.259934
     54          1           0        1.586075   -0.750797    2.252314
     55          6           0        3.127208    1.818908    1.161338
     56          1           0        2.995512    2.531448    1.986141
     57          1           0        4.039531    1.257353    1.399669
     58          6           0        0.280621    2.687771    1.209134
     59          1           0       -0.374845    3.133827    1.970007
     60          1           0        1.109701    3.398409    1.072762
     61          6           0       -1.415158    0.201260    3.602762
     62          1           0       -0.524559    0.817539    3.448528
     63          1           0       -2.333577    0.778897    3.486505
     64          1           0       -1.394469   -0.311002    4.566268
     65          6           0        3.337765    2.560274   -0.156638
     66          1           0        3.563139    1.834137   -0.946768
     67          1           0        2.420099    3.063998   -0.480071
     68          6           0        4.464247    3.587062   -0.047973
     69          1           0        4.642504    4.101523   -0.997329
     70          1           0        4.223965    4.346828    0.704381
     71          1           0        5.401535    3.109797    0.259821
     72          6           0        4.926863   -2.160127   -0.430111
     73          1           0        5.541425   -2.088496    0.469002
     74          1           0        5.376061   -2.898630   -1.103710
     75          6           0        4.740076   -0.817238   -1.137627
     76          1           0        4.503991   -0.052853   -0.392065
     77          1           0        5.607017   -0.499103   -1.720529
 ---------------------------------------------------------------------

 SCF Done:  E(RM062X) =  -1991.35680244     A.U. after   15 cycles

 The electronic state is 1-A.
 Alpha  occ. eigenvalues --  -90.14644 -19.62220 -19.62111 -19.58456 -19.56649
 Alpha  occ. eigenvalues --  -19.50645 -14.85293 -14.80268 -14.76653 -10.63330
 Alpha  occ. eigenvalues --  -10.62757 -10.62250 -10.61976 -10.61005 -10.59739
 Alpha  occ. eigenvalues --  -10.58096 -10.57926 -10.57813 -10.57149 -10.56884
 Alpha  occ. eigenvalues --  -10.56862 -10.55962 -10.55834 -10.55023 -10.54921
 Alpha  occ. eigenvalues --  -10.54887 -10.54823 -10.54669 -10.54590 -10.54451
 Alpha  occ. eigenvalues --  -10.54443 -10.54365 -10.52953 -10.51203 -10.51145
 Alpha  occ. eigenvalues --  -10.49447  -8.45618  -6.37842  -6.37805  -6.37652
 Alpha  occ. eigenvalues --   -1.22435  -1.13625  -1.13106  -1.10682  -1.09155
 Alpha  occ. eigenvalues --   -1.05709  -1.02304  -0.99183  -0.95880  -0.95031
 Alpha  occ. eigenvalues --   -0.93566  -0.90296  -0.88719  -0.86303  -0.85429
 Alpha  occ. eigenvalues --   -0.84869  -0.84795  -0.83981  -0.83096  -0.82986
 Alpha  occ. eigenvalues --   -0.76689  -0.75985  -0.75736  -0.74210  -0.73124
 Alpha  occ. eigenvalues --   -0.71793  -0.68265  -0.68141  -0.67873  -0.67456
 Alpha  occ. eigenvalues --   -0.66567  -0.65409  -0.64803  -0.63499  -0.60499
 Alpha  occ. eigenvalues --   -0.60335  -0.59669  -0.59592  -0.57766  -0.57698
 Alpha  occ. eigenvalues --   -0.57294  -0.56492  -0.55825  -0.55134  -0.54291
 Alpha  occ. eigenvalues --   -0.53615  -0.52918  -0.52639  -0.52468  -0.51986
 Alpha  occ. eigenvalues --   -0.51629  -0.50886  -0.50386  -0.49932  -0.49374
 Alpha  occ. eigenvalues --   -0.49129  -0.48986  -0.48274  -0.48121  -0.47860
 Alpha  occ. eigenvalues --   -0.47773  -0.47570  -0.47098  -0.46244  -0.45976
 Alpha  occ. eigenvalues --   -0.45074  -0.44792  -0.44285  -0.43811  -0.43275
 Alpha  occ. eigenvalues --   -0.42592  -0.42205  -0.41177  -0.41122  -0.40951
 Alpha  occ. eigenvalues --   -0.40761  -0.40545  -0.39962  -0.39809  -0.39288
 Alpha  occ. eigenvalues --   -0.39200  -0.39055  -0.38405  -0.38248  -0.37819
 Alpha  occ. eigenvalues --   -0.37288  -0.36608  -0.36421  -0.36009  -0.34961
 Alpha  occ. eigenvalues --   -0.34438  -0.34151  -0.31847  -0.31231  -0.29825
 Alpha  occ. eigenvalues --   -0.28900  -0.28618  -0.27738  -0.24179  -0.23991
 Alpha virt. eigenvalues --   -0.01417   0.00403   0.03440   0.03705   0.10122
 Alpha virt. eigenvalues --    0.10699   0.11436   0.12426   0.13171   0.13286
 Alpha virt. eigenvalues --    0.14153   0.14357   0.14751   0.15359   0.15573

 Mulliken charges:
               1
     1  C   -0.306408
     2  C   -0.307577
     3  C   -0.310092
     4  C   -0.058793
     5  C    0.056103
     6  C   -0.309551
     7  H    0.175071
     8  H    0.163091
     9  H    0.166563
    10  H    0.150921
    11  H    0.164787
    12  H    0.207268
    13  H    0.175472
    14  H    0.194902
    15  H    0.163484
    16  H    0.155806
    17  N   -0.435206
    18  C    0.071590
    19  C    0.068216
    20  C   -0.204076
    21  H    0.205124
    22  C   -0.212571
    23  H    0.243517
    24  C    0.448385
    25  H    0.192521
    26  H    0.210870
    27  N   -0.522259
    28  C   -0.168564
    29  H    0.168198
    30  H    0.225575
    31  C   -0.150436
    32  H    0.162502
    33  H    0.206155
    34  N   -0.802166
    35  S    1.247109
    36  O   -0.605506
    37  O   -0.597830
    38  C    0.069167
    39  C   -0.193024
    40  C   -0.191212
    41  C   -0.172643
    42  C   -0.164852
    43  C   -0.208931
    44  H    0.223842
    45  H    0.140342
    46  H    0.155098
    47  H    0.158597
    48  H    0.152367
    49  O   -0.566336
    50  H    0.440268
    51  C    0.719253
    52  O   -0.714290
    53  O   -0.712826
    54  H    0.436680
    55  C   -0.338739
    56  H    0.145694
    57  H    0.149989
    58  C   -0.084584
    59  H    0.135313
    60  H    0.150375
    61  C   -0.664518
    62  H    0.276184
    63  H    0.198471
    64  H    0.219925
    65  C   -0.287767
    66  H    0.135904
    67  H    0.143339
    68  C   -0.473901
    69  H    0.148039
    70  H    0.151556
    71  H    0.147368
    72  C   -0.333205
    73  H    0.186049
    74  H    0.161264
    75  C   -0.340849
    76  H    0.201886
    77  H    0.168508
 Sum of Mulliken charges =  -0.00000

 Dipole moment (field-independent basis, Debye):
    X=             -3.2611    Y=             -2.1440    Z=             -5.9944  Tot=              7.1529
 Quadrupole moment (field-independent basis, Debye-Ang):
   XX=           -207.4124   YY=           -221.6745   ZZ=           -219.7054
   XY=            -12.9335   XZ=             -4.5101   YZ=             10.3656

 Normal termination of Gaussian 16 at Thu Feb  7 12:06:40 2019.
