 Gaussian 16, Revision A.03,
 Gaussian 16:  ES64L-G16RevA.03 25-Dec-2016

 ------------------------------------------
 #p M062X/6-31G* em=gd3 force int=ultrafine
 ------------------------------------------

 -----
 Title
 -----
 Symbolic Z-matrix:
 Charge =  0 Multiplicity = 1

                         Standard orientation:
 ---------------------------------------------------------------------
 Center     Atomic      Atomic             Coordinates (Angstroms)
 Number     Number       Type             X           Y           Z
 ---------------------------------------------------------------------
      1          6           0       -4.855364    0.536579   -0.533269
      2          6           0       -5.031531   -0.742775   -1.356360
      3          6           0       -3.691728   -1.201844   -1.944347
      4          6           0       -2.702438   -1.438745   -0.807573
      5          6           0       -2.497155   -0.144388    0.016208
      6          6           0       -3.831560    0.343600    0.588588
      7          1           0       -3.807539   -2.113572   -2.539928
      8          1           0       -5.439370   -1.537955   -0.718571
      9          1           0       -5.750301   -0.581733   -2.165817
     10          1           0       -4.512099    1.344537   -1.193871
     11          1           0       -5.816295    0.850397   -0.113119
     12          1           0       -3.093706   -2.216410   -0.143547
     13          1           0       -2.139679    0.621578   -0.684289
     14          1           0       -4.202246   -0.380797    1.321927
     15          1           0       -3.648613    1.290850    1.108742
     16          1           0       -3.321797   -0.409870   -2.609325
     17          7           0       -1.373268   -1.913823   -1.247515
     18          6           0       -0.686929   -1.250174   -2.215649
     19          6           0       -0.680477   -2.726540   -0.406534
     20          6           0        0.663701   -1.348017   -2.349401
     21          1           0       -1.273914   -0.610583   -2.862106
     22          6           0        0.671791   -2.863641   -0.467750
     23          1           0       -1.267143   -3.221550    0.359554
     24          6           0        1.422814   -2.087736   -1.393478
     25          1           0        1.151968   -0.791791   -3.138525
     26          1           0        1.154190   -3.480980    0.276756
     27          7           0        2.750415   -2.064299   -1.369214
     28          6           0        3.487717   -2.584444   -0.206706
     29          1           0        3.341207   -3.663763   -0.107169
     30          1           0        3.121358   -2.060866    0.687581
     31          6           0        3.524190   -1.021348   -2.065055
     32          1           0        3.779829   -1.359992   -3.076884
     33          1           0        2.935080   -0.102496   -2.100905
     34          7           0       -1.413558   -0.279446    0.973142
     35         16           0       -1.437998   -1.167367    2.340391
     36          8           0       -2.669412   -1.959907    2.319538
     37          8           0       -0.163995   -1.874384    2.474071
     38          6           0       -0.530999    2.682503   -0.064895
     39          6           0       -0.034222    2.070570   -1.223654
     40          6           0       -0.747474    2.153634   -2.419098
     41          6           0       -1.971307    2.820473   -2.477183
     42          6           0       -2.478176    3.416642   -1.323895
     43          6           0       -1.757924    3.348624   -0.131646
     44          1           0        0.887227    1.492419   -1.145680
     45          1           0       -0.339893    1.695027   -3.318025
     46          1           0       -2.521866    2.881640   -3.411847
     47          1           0       -3.431558    3.936946   -1.352855
     48          1           0       -2.158613    3.818272    0.764533
     49          8           0        0.665731    1.359649    1.649133
     50          1           0       -0.539186    0.266918    0.879658
     51          6           0        2.052101    0.731728    1.185266
     52          8           0        1.919609    0.179315    0.032218
     53          8           0        2.255879   -0.153974    2.263699
     54          1           0        1.568076   -0.837840    2.169177
     55          6           0        3.122210    1.830359    1.328858
     56          1           0        2.876225    2.491525    2.169310
     57          1           0        4.047829    1.313525    1.614254
     58          6           0        0.235615    2.630401    1.252076
     59          1           0       -0.435021    3.009407    2.039106
     60          1           0        1.075872    3.338430    1.207448
     61          6           0       -1.481428    0.027028    3.658017
     62          1           0       -0.597430    0.656316    3.513928
     63          1           0       -2.405324    0.601376    3.575211
     64          1           0       -1.436475   -0.513333    4.604877
     65          6           0        3.377009    2.628736    0.052491
     66          1           0        3.703609    1.938873   -0.733957
     67          1           0        2.448241    3.073550   -0.324074
     68          6           0        4.418324    3.725381    0.262571
     69          1           0        4.622083    4.275261   -0.661487
     70          1           0        4.078620    4.447234    1.013859
     71          1           0        5.364201    3.303197    0.619962
     72          6           0        4.930952   -2.200678   -0.511063
     73          1           0        5.539241   -2.160562    0.394411
     74          1           0        5.380311   -2.922426   -1.202476
     75          6           0        4.758721   -0.836612   -1.180381
     76          1           0        4.511029   -0.093127   -0.417519
     77          1           0        5.633621   -0.508273   -1.745588
 ---------------------------------------------------------------------

 SCF Done:  E(RM062X) =  -1991.35557472     A.U. after   15 cycles

 The electronic state is 1-A.
 Alpha  occ. eigenvalues --  -90.14720 -19.62367 -19.62060 -19.58545 -19.57119
 Alpha  occ. eigenvalues --  -19.50757 -14.85173 -14.80041 -14.76433 -10.63154
 Alpha  occ. eigenvalues --  -10.62605 -10.62288 -10.62120 -10.61076 -10.59858
 Alpha  occ. eigenvalues --  -10.57770 -10.57754 -10.57642 -10.57024 -10.56966
 Alpha  occ. eigenvalues --  -10.56879 -10.56372 -10.55867 -10.55124 -10.55080
 Alpha  occ. eigenvalues --  -10.55044 -10.54888 -10.54688 -10.54685 -10.54661
 Alpha  occ. eigenvalues --  -10.54452 -10.54049 -10.53123 -10.51106 -10.51000
 Alpha  occ. eigenvalues --  -10.49605  -8.45693  -6.37920  -6.37869  -6.37743
 Alpha  occ. eigenvalues --   -1.22513  -1.13447  -1.12814  -1.10716  -1.08874
 Alpha  occ. eigenvalues --   -1.05984  -1.02405  -1.00165  -0.95823  -0.95218
 Alpha  occ. eigenvalues --   -0.93468  -0.90112  -0.88566  -0.86522  -0.85384
 Alpha  occ. eigenvalues --   -0.84911  -0.84850  -0.83713  -0.83315  -0.83052
 Alpha  occ. eigenvalues --   -0.76561  -0.76010  -0.75550  -0.74200  -0.73247
 Alpha  occ. eigenvalues --   -0.71751  -0.68231  -0.68137  -0.67748  -0.67488
 Alpha  occ. eigenvalues --   -0.66420  -0.65488  -0.64880  -0.63330  -0.60527
 Alpha  occ. eigenvalues --   -0.60379  -0.59953  -0.59403  -0.57948  -0.57686
 Alpha  occ. eigenvalues --   -0.57149  -0.56380  -0.55650  -0.55075  -0.54383
 Alpha  occ. eigenvalues --   -0.53554  -0.53066  -0.52663  -0.52453  -0.52165
 Alpha  occ. eigenvalues --   -0.51678  -0.50815  -0.50128  -0.49924  -0.49365
 Alpha  occ. eigenvalues --   -0.49240  -0.48925  -0.48502  -0.48195  -0.48023
 Alpha  occ. eigenvalues --   -0.47711  -0.47641  -0.47162  -0.46195  -0.45824
 Alpha  occ. eigenvalues --   -0.45324  -0.45176  -0.44392  -0.44052  -0.43188
 Alpha  occ. eigenvalues --   -0.42466  -0.42335  -0.41195  -0.40871  -0.40751
 Alpha  occ. eigenvalues --   -0.40666  -0.40397  -0.40144  -0.39840  -0.39421
 Alpha  occ. eigenvalues --   -0.39123  -0.38908  -0.38708  -0.38308  -0.37771
 Alpha  occ. eigenvalues --   -0.37438  -0.36517  -0.36443  -0.36045  -0.35032
 Alpha  occ. eigenvalues --   -0.34561  -0.34297  -0.31829  -0.31312  -0.30018
 Alpha  occ. eigenvalues --   -0.29282  -0.28816  -0.27774  -0.24382  -0.24045
 Alpha virt. eigenvalues --   -0.01231   0.00584   0.03205   0.03576   0.10161
 Alpha virt. eigenvalues --    0.10591   0.11347   0.12564   0.13167   0.13326
 Alpha virt. eigenvalues --    0.14148   0.14420   0.15064   0.15531   0.15536

 Mulliken charges:
               1
     1  C   -0.306535
     2  C   -0.307793
     3  C   -0.311289
     4  C   -0.060514
     5  C    0.065259
     6  C   -0.306838
     7  H    0.175457
     8  H    0.163259
     9  H    0.166762
    10  H    0.151451
    11  H    0.164900
    12  H    0.207450
    13  H    0.174487
    14  H    0.192400
    15  H    0.160485
    16  H    0.156486
    17  N   -0.437298
    18  C    0.080006
    19  C    0.080741
    20  C   -0.210356
    21  H    0.202810
    22  C   -0.221140
    23  H    0.243695
    24  C    0.449018
    25  H    0.192040
    26  H    0.209708
    27  N   -0.518263
    28  C   -0.164810
    29  H    0.167103
    30  H    0.220608
    31  C   -0.145254
    32  H    0.160376
    33  H    0.205400
    34  N   -0.811824
    35  S    1.237712
    36  O   -0.603695
    37  O   -0.591571
    38  C    0.049315
    39  C   -0.197001
    40  C   -0.192637
    41  C   -0.172490
    42  C   -0.165249
    43  C   -0.205261
    44  H    0.234977
    45  H    0.141407
    46  H    0.156261
    47  H    0.159865
    48  H    0.154341
    49  O   -0.601577
    50  H    0.450938
    51  C    0.714865
    52  O   -0.686569
    53  O   -0.701678
    54  H    0.432551
    55  C   -0.339991
    56  H    0.144036
    57  H    0.150952
    58  C   -0.079675
    59  H    0.130403
    60  H    0.156243
    61  C   -0.666460
    62  H    0.267213
    63  H    0.200334
    64  H    0.223072
    65  C   -0.285101
    66  H    0.142808
    67  H    0.140569
    68  C   -0.475081
    69  H    0.148349
    70  H    0.149131
    71  H    0.148696
    72  C   -0.334117
    73  H    0.184301
    74  H    0.160029
    75  C   -0.338415
    76  H    0.205459
    77  H    0.164757
 Sum of Mulliken charges =  -0.00000

 Dipole moment (field-independent basis, Debye):
    X=             -3.5555    Y=             -1.5042    Z=             -5.7134  Tot=              6.8955
 Quadrupole moment (field-independent basis, Debye-Ang):
   XX=           -208.5152   YY=           -222.6074   ZZ=           -218.1875
   XY=            -13.4735   XZ=             -4.1848   YZ=             10.7860

 Normal termination of Gaussian 16 at Thu Feb  7 09:41:05 2019.
