 Gaussian 16, Revision A.03,
 Gaussian 16:  ES64L-G16RevA.03 25-Dec-2016

 ------------------------------------------
 #p M062X/6-31G* em=gd3 force int=ultrafine
 ------------------------------------------

 -----
 Title
 -----
 Symbolic Z-matrix:
 Charge =  0 Multiplicity = 1

                         Standard orientation:
 ---------------------------------------------------------------------
 Center     Atomic      Atomic             Coordinates (Angstroms)
 Number     Number       Type             X           Y           Z
 ---------------------------------------------------------------------
      1          6           0       -4.842822    0.473938   -0.536046
      2          6           0       -5.032547   -0.841842   -1.296958
      3          6           0       -3.704444   -1.324458   -1.892158
      4          6           0       -2.692599   -1.498802   -0.764803
      5          6           0       -2.465220   -0.160840   -0.018577
      6          6           0       -3.788375    0.342382    0.567788
      7          1           0       -3.828626   -2.266055   -2.437512
      8          1           0       -5.423625   -1.609079   -0.615906
      9          1           0       -5.769621   -0.718921   -2.096707
     10          1           0       -4.526457    1.253843   -1.241710
     11          1           0       -5.795153    0.798021   -0.104010
     12          1           0       -3.069990   -2.237202   -0.050251
     13          1           0       -2.142639    0.571696   -0.769474
     14          1           0       -4.137258   -0.350470    1.340572
     15          1           0       -3.604009    1.314118    1.038844
     16          1           0       -3.352074   -0.566855   -2.605044
     17          7           0       -1.371548   -1.995893   -1.201988
     18          6           0       -0.691019   -1.352523   -2.188461
     19          6           0       -0.673873   -2.777243   -0.335263
     20          6           0        0.661089   -1.435915   -2.312281
     21          1           0       -1.284347   -0.737580   -2.853452
     22          6           0        0.680091   -2.896721   -0.385246
     23          1           0       -1.257671   -3.248830    0.447712
     24          6           0        1.422277   -2.130145   -1.324505
     25          1           0        1.146962   -0.895831   -3.113776
     26          1           0        1.168656   -3.478930    0.382994
     27          7           0        2.747713   -2.069360   -1.283116
     28          6           0        3.489891   -2.538853   -0.102825
     29          1           0        3.354817   -3.615265    0.035319
     30          1           0        3.118367   -1.986741    0.772674
     31          6           0        3.496008   -1.025428   -2.001135
     32          1           0        3.744173   -1.371342   -3.012337
     33          1           0        2.886185   -0.119452   -2.043636
     34          7           0       -1.351733   -0.219765    0.916321
     35         16           0       -1.366535   -1.043466    2.329732
     36          8           0       -2.601590   -1.830666    2.369103
     37          8           0       -0.094800   -1.752164    2.480550
     38          6           0       -0.532260    2.643373   -0.087080
     39          6           0       -0.058959    2.077673   -1.280851
     40          6           0       -0.822579    2.139708   -2.445910
     41          6           0       -2.072457    2.758413   -2.451749
     42          6           0       -2.553577    3.321674   -1.272149
     43          6           0       -1.786299    3.262501   -0.108640
     44          1           0        0.884947    1.540723   -1.256119
     45          1           0       -0.429954    1.705285   -3.363372
     46          1           0       -2.659944    2.808726   -3.364401
     47          1           0       -3.523365    3.811533   -1.257062
     48          1           0       -2.171240    3.711733    0.804808
     49          8           0        0.745051    1.500087    1.777520
     50          1           0       -0.394977    0.032517    0.600942
     51          6           0        1.955214    0.799326    1.197031
     52          8           0        1.636522    0.189347    0.085254
     53          8           0        2.287316   -0.074125    2.262479
     54          1           0        1.583731   -0.747730    2.258916
     55          6           0        3.122875    1.815951    1.153572
     56          1           0        2.999710    2.530168    1.978216
     57          1           0        4.033881    1.250514    1.387558
     58          6           0        0.280620    2.693541    1.210791
     59          1           0       -0.374044    3.143395    1.969955
     60          1           0        1.109144    3.403847    1.069786
     61          6           0       -1.412761    0.201256    3.597280
     62          1           0       -0.522166    0.818080    3.445354
     63          1           0       -2.331005    0.778489    3.477327
     64          1           0       -1.395444   -0.310290    4.561183
     65          6           0        3.330037    2.555802   -0.165714
     66          1           0        3.549661    1.829103   -0.956964
     67          1           0        2.413102    3.063101   -0.485175
     68          6           0        4.460672    3.578526   -0.061920
     69          1           0        4.636932    4.092229   -1.012052
     70          1           0        4.225874    4.339130    0.691284
     71          1           0        5.397478    3.098036    0.242341
     72          6           0        4.927950   -2.153113   -0.428224
     73          1           0        5.543137   -2.081003    0.470412
     74          1           0        5.377174   -2.891244   -1.102181
     75          6           0        4.739906   -0.810314   -1.135720
     76          1           0        4.506314   -0.045542   -0.389849
     77          1           0        5.605863   -0.492396   -1.720186
 ---------------------------------------------------------------------

 SCF Done:  E(RM062X) =  -1991.35695836     A.U. after   15 cycles

 The electronic state is 1-A.
 Alpha  occ. eigenvalues --  -90.14600 -19.62173 -19.62085 -19.58508 -19.56612
 Alpha  occ. eigenvalues --  -19.50700 -14.85290 -14.80291 -14.76597 -10.63346
 Alpha  occ. eigenvalues --  -10.62766 -10.62255 -10.61980 -10.60984 -10.59707
 Alpha  occ. eigenvalues --  -10.58131 -10.57940 -10.57837 -10.57160 -10.56898
 Alpha  occ. eigenvalues --  -10.56849 -10.55912 -10.55819 -10.55005 -10.54916
 Alpha  occ. eigenvalues --  -10.54915 -10.54816 -10.54661 -10.54564 -10.54483
 Alpha  occ. eigenvalues --  -10.54453 -10.54374 -10.52964 -10.51224 -10.51170
 Alpha  occ. eigenvalues --  -10.49451  -8.45574  -6.37798  -6.37763  -6.37609
 Alpha  occ. eigenvalues --   -1.22397  -1.13630  -1.13147  -1.10646  -1.09183
 Alpha  occ. eigenvalues --   -1.05698  -1.02251  -0.99167  -0.95872  -0.95030
 Alpha  occ. eigenvalues --   -0.93565  -0.90306  -0.88730  -0.86265  -0.85453
 Alpha  occ. eigenvalues --   -0.84864  -0.84797  -0.84010  -0.83092  -0.82958
 Alpha  occ. eigenvalues --   -0.76694  -0.76000  -0.75751  -0.74234  -0.73093
 Alpha  occ. eigenvalues --   -0.71785  -0.68273  -0.68141  -0.67887  -0.67432
 Alpha  occ. eigenvalues --   -0.66589  -0.65389  -0.64810  -0.63507  -0.60502
 Alpha  occ. eigenvalues --   -0.60347  -0.59647  -0.59563  -0.57748  -0.57710
 Alpha  occ. eigenvalues --   -0.57292  -0.56490  -0.55826  -0.55133  -0.54277
 Alpha  occ. eigenvalues --   -0.53615  -0.52882  -0.52627  -0.52481  -0.51976
 Alpha  occ. eigenvalues --   -0.51617  -0.50898  -0.50416  -0.49932  -0.49384
 Alpha  occ. eigenvalues --   -0.49126  -0.48980  -0.48254  -0.48122  -0.47854
 Alpha  occ. eigenvalues --   -0.47784  -0.47560  -0.47078  -0.46261  -0.45997
 Alpha  occ. eigenvalues --   -0.45054  -0.44765  -0.44276  -0.43804  -0.43277
 Alpha  occ. eigenvalues --   -0.42594  -0.42200  -0.41198  -0.41141  -0.40962
 Alpha  occ. eigenvalues --   -0.40782  -0.40554  -0.39964  -0.39794  -0.39274
 Alpha  occ. eigenvalues --   -0.39202  -0.39069  -0.38403  -0.38221  -0.37802
 Alpha  occ. eigenvalues --   -0.37295  -0.36631  -0.36425  -0.35985  -0.34960
 Alpha  occ. eigenvalues --   -0.34430  -0.34136  -0.31829  -0.31215  -0.29823
 Alpha  occ. eigenvalues --   -0.28904  -0.28617  -0.27735  -0.24250  -0.24011
 Alpha virt. eigenvalues --   -0.01434   0.00394   0.03452   0.03702   0.10118
 Alpha virt. eigenvalues --    0.10722   0.11459   0.12405   0.13162   0.13305
 Alpha virt. eigenvalues --    0.14171   0.14357   0.14745   0.15341   0.15575

 Mulliken charges:
               1
     1  C   -0.306386
     2  C   -0.307532
     3  C   -0.309959
     4  C   -0.058928
     5  C    0.055843
     6  C   -0.309741
     7  H    0.174981
     8  H    0.163090
     9  H    0.166470
    10  H    0.150821
    11  H    0.164682
    12  H    0.207462
    13  H    0.175258
    14  H    0.194976
    15  H    0.163476
    16  H    0.155671
    17  N   -0.434734
    18  C    0.070979
    19  C    0.067497
    20  C   -0.203651
    21  H    0.205267
    22  C   -0.212015
    23  H    0.243625
    24  C    0.448105
    25  H    0.192510
    26  H    0.210973
    27  N   -0.522698
    28  C   -0.168749
    29  H    0.168386
    30  H    0.225884
    31  C   -0.150965
    32  H    0.162762
    33  H    0.206267
    34  N   -0.803551
    35  S    1.247659
    36  O   -0.606076
    37  O   -0.598589
    38  C    0.070968
    39  C   -0.192063
    40  C   -0.191150
    41  C   -0.172565
    42  C   -0.164739
    43  C   -0.209292
    44  H    0.222789
    45  H    0.140323
    46  H    0.155087
    47  H    0.158599
    48  H    0.152356
    49  O   -0.563729
    50  H    0.440876
    51  C    0.719551
    52  O   -0.715402
    53  O   -0.713987
    54  H    0.437279
    55  C   -0.338419
    56  H    0.145852
    57  H    0.150126
    58  C   -0.085495
    59  H    0.135950
    60  H    0.150337
    61  C   -0.664438
    62  H    0.276507
    63  H    0.198174
    64  H    0.219613
    65  C   -0.288200
    66  H    0.135345
    67  H    0.143566
    68  C   -0.473788
    69  H    0.148067
    70  H    0.151777
    71  H    0.147283
    72  C   -0.333102
    73  H    0.186171
    74  H    0.161439
    75  C   -0.341114
    76  H    0.201542
    77  H    0.168833
 Sum of Mulliken charges =  -0.00000

 Dipole moment (field-independent basis, Debye):
    X=             -3.2030    Y=             -2.1512    Z=             -6.0367  Tot=              7.1644
 Quadrupole moment (field-independent basis, Debye-Ang):
   XX=           -207.2825   YY=           -221.6611   ZZ=           -219.8365
   XY=            -12.9071   XZ=             -4.5692   YZ=             10.3388

 Normal termination of Gaussian 16 at Thu Feb  7 12:17:06 2019.
