 Gaussian 16, Revision A.03,
 Gaussian 16:  ES64L-G16RevA.03 25-Dec-2016

 ------------------------------------------
 #p M062X/6-31G* em=gd3 force int=ultrafine
 ------------------------------------------

 -----
 Title
 -----
 Symbolic Z-matrix:
 Charge =  0 Multiplicity = 1

                         Standard orientation:
 ---------------------------------------------------------------------
 Center     Atomic      Atomic             Coordinates (Angstroms)
 Number     Number       Type             X           Y           Z
 ---------------------------------------------------------------------
      1          6           0       -4.783350    0.286922   -0.703269
      2          6           0       -4.903397   -1.034445   -1.468329
      3          6           0       -3.540912   -1.469350   -2.021412
      4          6           0       -2.563295   -1.608822   -0.860170
      5          6           0       -2.398133   -0.261368   -0.109526
      6          6           0       -3.758891    0.193213    0.431736
      7          1           0       -3.615166   -2.414174   -2.570611
      8          1           0       -5.287022   -1.815336   -0.798708
      9          1           0       -5.619649   -0.937447   -2.290269
     10          1           0       -4.475265    1.077541   -1.399921
     11          1           0       -5.758987    0.576507   -0.299383
     12          1           0       -2.944057   -2.354338   -0.155091
     13          1           0       -2.075275    0.479540   -0.852485
     14          1           0       -4.107754   -0.514497    1.190850
     15          1           0       -3.627336    1.169766    0.909198
     16          1           0       -3.193533   -0.698668   -2.722659
     17          7           0       -1.213530   -2.069814   -1.245786
     18          6           0       -0.527851   -1.436720   -2.233448
     19          6           0       -0.514675   -2.788634   -0.326129
     20          6           0        0.830455   -1.466958   -2.308853
     21          1           0       -1.123204   -0.878820   -2.945487
     22          6           0        0.844309   -2.839270   -0.317258
     23          1           0       -1.107283   -3.264952    0.447325
     24          6           0        1.581985   -2.071740   -1.257619
     25          1           0        1.319858   -0.944493   -3.119338
     26          1           0        1.330560   -3.365612    0.491935
     27          7           0        2.900383   -1.933403   -1.166224
     28          6           0        3.624872   -2.273670    0.068569
     29          1           0        3.525721   -3.339631    0.291693
     30          1           0        3.206238   -1.671793    0.889303
     31          6           0        3.622209   -0.924866   -1.951042
     32          1           0        3.871974   -1.327458   -2.940431
     33          1           0        2.987146   -0.041615   -2.064688
     34          7           0       -1.313383   -0.290272    0.858734
     35         16           0       -1.402876   -1.087893    2.275746
     36          8           0       -2.585021   -1.955556    2.253227
     37          8           0       -0.107353   -1.719267    2.544333
     38          6           0       -0.658596    2.708616    0.021297
     39          6           0       -0.187378    2.247809   -1.218109
     40          6           0       -0.991016    2.314749   -2.354136
     41          6           0       -2.284488    2.833921   -2.284368
     42          6           0       -2.767723    3.285158   -1.059726
     43          6           0       -1.956261    3.223942    0.073811
     44          1           0        0.790407    1.784934   -1.263250
     45          1           0       -0.599379    1.963478   -3.305804
     46          1           0       -2.906270    2.889641   -3.173795
     47          1           0       -3.774182    3.689767   -0.983306
     48          1           0       -2.341111    3.591180    1.023813
     49          8           0        0.665795    1.613774    1.890204
     50          1           0       -0.316524   -0.049097    0.558000
     51          6           0        1.780757    0.862585    1.246286
     52          8           0        1.352330    0.244219    0.163462
     53          8           0        2.174946   -0.008078    2.292095
     54          1           0        1.460579   -0.666411    2.362212
     55          6           0        3.001845    1.808346    1.085215
     56          1           0        2.987241    2.542435    1.901030
     57          1           0        3.882393    1.180377    1.272024
     58          6           0        0.204858    2.789889    1.282776
     59          1           0       -0.404384    3.288856    2.047043
     60          1           0        1.045892    3.467453    1.076911
     61          6           0       -1.626721    0.171413    3.510469
     62          1           0       -0.767090    0.840789    3.416673
     63          1           0       -2.563958    0.690074    3.300583
     64          1           0       -1.661025   -0.318136    4.485263
     65          6           0        3.180981    2.504855   -0.260653
     66          1           0        3.096522    1.757844   -1.057961
     67          1           0        2.378831    3.226532   -0.449538
     68          6           0        4.526937    3.222658   -0.354530
     69          1           0        4.656994    3.717363   -1.322091
     70          1           0        4.617438    3.984802    0.426937
     71          1           0        5.358028    2.520116   -0.220555
     72          6           0        5.059814   -1.873466   -0.258487
     73          1           0        5.645166   -1.686537    0.643706
     74          1           0        5.551349   -2.664528   -0.835180
     75          6           0        4.868768   -0.618581   -1.114732
     76          1           0        4.656972    0.234084   -0.465048
     77          1           0        5.734689   -0.376682   -1.734666
 ---------------------------------------------------------------------

 SCF Done:  E(RM062X) =  -1991.35896961     A.U. after   14 cycles

 The electronic state is 1-A.
 Alpha  occ. eigenvalues --  -90.14032 -19.61649 -19.61638 -19.58806 -19.56742
 Alpha  occ. eigenvalues --  -19.51403 -14.85114 -14.80461 -14.75426 -10.63369
 Alpha  occ. eigenvalues --  -10.62741 -10.62336 -10.62040 -10.60640 -10.59192
 Alpha  occ. eigenvalues --  -10.58763 -10.57891 -10.57875 -10.57038 -10.56845
 Alpha  occ. eigenvalues --  -10.56652 -10.55594 -10.55581 -10.55219 -10.55088
 Alpha  occ. eigenvalues --  -10.54733 -10.54704 -10.54620 -10.54452 -10.54296
 Alpha  occ. eigenvalues --  -10.54220 -10.54160 -10.53089 -10.51699 -10.51591
 Alpha  occ. eigenvalues --  -10.49816  -8.45011  -6.37226  -6.37205  -6.37049
 Alpha  occ. eigenvalues --   -1.21863  -1.13685  -1.13449  -1.10109  -1.09363
 Alpha  occ. eigenvalues --   -1.05918  -1.01563  -0.99438  -0.95666  -0.94900
 Alpha  occ. eigenvalues --   -0.93451  -0.90217  -0.88758  -0.85927  -0.85802
 Alpha  occ. eigenvalues --   -0.84765  -0.84627  -0.84353  -0.82982  -0.82585
 Alpha  occ. eigenvalues --   -0.76634  -0.76383  -0.75829  -0.74393  -0.72688
 Alpha  occ. eigenvalues --   -0.71546  -0.68353  -0.68298  -0.67891  -0.67134
 Alpha  occ. eigenvalues --   -0.66753  -0.65172  -0.64861  -0.63520  -0.60575
 Alpha  occ. eigenvalues --   -0.60406  -0.59797  -0.58802  -0.57855  -0.57530
 Alpha  occ. eigenvalues --   -0.57114  -0.56414  -0.55673  -0.55161  -0.54166
 Alpha  occ. eigenvalues --   -0.53427  -0.52619  -0.52379  -0.52334  -0.51847
 Alpha  occ. eigenvalues --   -0.51511  -0.51101  -0.50954  -0.49836  -0.49591
 Alpha  occ. eigenvalues --   -0.49162  -0.48797  -0.48213  -0.48109  -0.48054
 Alpha  occ. eigenvalues --   -0.47607  -0.47415  -0.46886  -0.46471  -0.46085
 Alpha  occ. eigenvalues --   -0.44935  -0.44642  -0.44058  -0.43872  -0.43244
 Alpha  occ. eigenvalues --   -0.42424  -0.42070  -0.41595  -0.41445  -0.41213
 Alpha  occ. eigenvalues --   -0.40873  -0.40433  -0.40023  -0.39863  -0.39546
 Alpha  occ. eigenvalues --   -0.39233  -0.39035  -0.38420  -0.37858  -0.37576
 Alpha  occ. eigenvalues --   -0.37338  -0.36730  -0.36562  -0.35665  -0.34868
 Alpha  occ. eigenvalues --   -0.34334  -0.33863  -0.31777  -0.30942  -0.29682
 Alpha  occ. eigenvalues --   -0.28880  -0.28517  -0.27543  -0.25005  -0.24537
 Alpha virt. eigenvalues --   -0.01375   0.00522   0.03651   0.03873   0.10236
 Alpha virt. eigenvalues --    0.11067   0.11527   0.12066   0.13210   0.13534
 Alpha virt. eigenvalues --    0.14234   0.14681   0.14839   0.15395   0.15601

 Mulliken charges:
               1
     1  C   -0.306044
     2  C   -0.306851
     3  C   -0.310489
     4  C   -0.058839
     5  C    0.056741
     6  C   -0.311649
     7  H    0.173730
     8  H    0.162926
     9  H    0.165007
    10  H    0.150295
    11  H    0.162849
    12  H    0.208333
    13  H    0.172276
    14  H    0.193953
    15  H    0.163215
    16  H    0.153551
    17  N   -0.433175
    18  C    0.070721
    19  C    0.065278
    20  C   -0.206149
    21  H    0.207131
    22  C   -0.209565
    23  H    0.245884
    24  C    0.452559
    25  H    0.190636
    26  H    0.211758
    27  N   -0.530334
    28  C   -0.177402
    29  H    0.169999
    30  H    0.238650
    31  C   -0.154155
    32  H    0.168786
    33  H    0.200153
    34  N   -0.817401
    35  S    1.254070
    36  O   -0.611446
    37  O   -0.609823
    38  C    0.092590
    39  C   -0.176495
    40  C   -0.188601
    41  C   -0.170398
    42  C   -0.163559
    43  C   -0.212007
    44  H    0.201606
    45  H    0.141629
    46  H    0.154387
    47  H    0.157939
    48  H    0.151755
    49  O   -0.547583
    50  H    0.449882
    51  C    0.728636
    52  O   -0.724538
    53  O   -0.718145
    54  H    0.445824
    55  C   -0.337159
    56  H    0.150467
    57  H    0.147344
    58  C   -0.095634
    59  H    0.141503
    60  H    0.146574
    61  C   -0.662517
    62  H    0.270057
    63  H    0.196261
    64  H    0.217264
    65  C   -0.295865
    66  H    0.141985
    67  H    0.147184
    68  C   -0.476556
    69  H    0.149662
    70  H    0.156455
    71  H    0.144102
    72  C   -0.331908
    73  H    0.187510
    74  H    0.163935
    75  C   -0.344660
    76  H    0.193714
    77  H    0.172180
 Sum of Mulliken charges =  -0.00000

 Dipole moment (field-independent basis, Debye):
    X=             -1.9650    Y=             -2.0117    Z=             -6.4979  Tot=              7.0803
 Quadrupole moment (field-independent basis, Debye-Ang):
   XX=           -204.4270   YY=           -223.1066   ZZ=           -220.0696
   XY=            -12.1002   XZ=             -5.0643   YZ=             10.3326

 Normal termination of Gaussian 16 at Thu Feb  7 17:41:46 2019.
