 Gaussian 16, Revision A.03,
 Gaussian 16:  ES64L-G16RevA.03 25-Dec-2016

 ------------------------------------------
 #p M062X/6-31G* em=gd3 force int=ultrafine
 ------------------------------------------

 -----
 Title
 -----
 Symbolic Z-matrix:
 Charge =  0 Multiplicity = 1

                         Standard orientation:
 ---------------------------------------------------------------------
 Center     Atomic      Atomic             Coordinates (Angstroms)
 Number     Number       Type             X           Y           Z
 ---------------------------------------------------------------------
      1          6           0       -4.870189    0.128391   -0.438162
      2          6           0       -4.934394   -1.163030   -1.259225
      3          6           0       -3.559815   -1.505894   -1.846285
      4          6           0       -2.553539   -1.632053   -0.706797
      5          6           0       -2.436204   -0.302842    0.093146
      6          6           0       -3.817884    0.038660    0.671369
      7          1           0       -3.597894   -2.433659   -2.428768
      8          1           0       -5.270077   -1.989714   -0.619468
      9          1           0       -5.665229   -1.068493   -2.069204
     10          1           0       -4.609212    0.961815   -1.105621
     11          1           0       -5.855024    0.352999   -0.014860
     12          1           0       -2.875017   -2.423375   -0.023993
     13          1           0       -2.213338    0.469123   -0.658689
     14          1           0       -4.100887   -0.723319    1.408737
     15          1           0       -3.733133    0.998498    1.194871
     16          1           0       -3.267703   -0.693298   -2.525652
     17          7           0       -1.193203   -2.017373   -1.149486
     18          6           0       -0.574889   -1.346513   -2.148620
     19          6           0       -0.443777   -2.765730   -0.305895
     20          6           0        0.778854   -1.383363   -2.322198
     21          1           0       -1.213378   -0.754515   -2.791608
     22          6           0        0.915178   -2.847062   -0.412463
     23          1           0       -0.983311   -3.253290    0.498985
     24          6           0        1.594681   -2.072513   -1.382445
     25          1           0        1.214793   -0.829458   -3.143154
     26          1           0        1.446582   -3.416511    0.337063
     27          7           0        2.931565   -1.980750   -1.395731
     28          6           0        3.721348   -2.463121   -0.255607
     29          1           0        3.664453   -3.552836   -0.178107
     30          1           0        3.325774   -2.017617    0.667948
     31          6           0        3.631272   -0.911711   -2.124416
     32          1           0        3.892776   -1.251290   -3.134061
     33          1           0        2.990901   -0.027931   -2.187357
     34          7           0       -1.308531   -0.270761    1.000622
     35         16           0       -1.273672   -1.195055    2.281063
     36          8           0       -2.282051   -2.278262    2.272954
     37          8           0        0.121567   -1.658468    2.514442
     38          6           0       -1.045761    2.859631   -0.162900
     39          6           0       -0.359018    2.173120   -1.170908
     40          6           0       -0.921728    2.059140   -2.440140
     41          6           0       -2.185146    2.587206   -2.708947
     42          6           0       -2.883858    3.241939   -1.697333
     43          6           0       -2.310654    3.378647   -0.434992
     44          1           0        0.591859    1.694969   -0.941199
     45          1           0       -0.371517    1.548799   -3.227562
     46          1           0       -2.623265    2.489653   -3.697861
     47          1           0       -3.874214    3.645387   -1.887060
     48          1           0       -2.855588    3.886227    0.357842
     49          8           0        0.247985    1.876885    1.640984
     50          1           0       -0.288366    1.079656    1.348172
     51          6           0        2.439239    0.639194    1.200033
     52          8           0        2.105544    0.204793    0.111095
     53          8           0        2.234197   -0.000548    2.340597
     54          1           0        1.523410   -0.690938    2.233766
     55          6           0        3.192386    1.935593    1.385819
     56          1           0        2.696168    2.473500    2.199397
     57          1           0        4.206827    1.697111    1.736060
     58          6           0       -0.435465    3.019402    1.213461
     59          1           0       -1.227013    3.313947    1.922317
     60          1           0        0.294757    3.841974    1.197148
     61          6           0       -1.623770   -0.142125    3.686275
     62          1           0       -0.904810    0.680116    3.652885
     63          1           0       -2.643924    0.233596    3.586202
     64          1           0       -1.511763   -0.723744    4.602211
     65          6           0        3.234513    2.775126    0.115139
     66          1           0        3.659810    2.181785   -0.703388
     67          1           0        2.206494    3.007611   -0.185095
     68          6           0        4.030169    4.064133    0.296512
     69          1           0        4.063117    4.644762   -0.629953
     70          1           0        3.583159    4.694943    1.072040
     71          1           0        5.062111    3.851731    0.596656
     72          6           0        5.130918   -1.962738   -0.558942
     73          1           0        5.726795   -1.852638    0.349332
     74          1           0        5.644681   -2.662207   -1.226211
     75          6           0        4.871271   -0.632563   -1.270233
     76          1           0        4.621768    0.136347   -0.533724
     77          1           0        5.717982   -0.285414   -1.865928
 ---------------------------------------------------------------------

 SCF Done:  E(RM062X) =  -1991.38801164     A.U. after   15 cycles

 The electronic state is 1-A.
 Alpha  occ. eigenvalues --  -90.10330 -19.63398 -19.60098 -19.59144 -19.58527
 Alpha  occ. eigenvalues --  -19.58335 -14.84791 -14.80482 -14.69357 -10.65518
 Alpha  occ. eigenvalues --  -10.63218 -10.62407 -10.61503 -10.59124 -10.59084
 Alpha  occ. eigenvalues --  -10.59023 -10.57822 -10.57410 -10.56796 -10.56667
 Alpha  occ. eigenvalues --  -10.56011 -10.55734 -10.55545 -10.54988 -10.54928
 Alpha  occ. eigenvalues --  -10.54878 -10.54603 -10.54565 -10.54503 -10.53817
 Alpha  occ. eigenvalues --  -10.53627 -10.53569 -10.53230 -10.53176 -10.52674
 Alpha  occ. eigenvalues --  -10.52620  -8.41293  -6.33531  -6.33438  -6.33358
 Alpha  occ. eigenvalues --   -1.19135  -1.17847  -1.12929  -1.10196  -1.09867
 Alpha  occ. eigenvalues --   -1.09121  -1.06117  -0.97525  -0.95280  -0.94777
 Alpha  occ. eigenvalues --   -0.92183  -0.89842  -0.88570  -0.88138  -0.85031
 Alpha  occ. eigenvalues --   -0.84924  -0.83659  -0.83508  -0.83300  -0.80152
 Alpha  occ. eigenvalues --   -0.79207  -0.76337  -0.75643  -0.74675  -0.70935
 Alpha  occ. eigenvalues --   -0.70203  -0.69146  -0.68699  -0.68349  -0.68031
 Alpha  occ. eigenvalues --   -0.65853  -0.64731  -0.63929  -0.63430  -0.61607
 Alpha  occ. eigenvalues --   -0.60258  -0.59380  -0.59009  -0.58349  -0.56160
 Alpha  occ. eigenvalues --   -0.55460  -0.55183  -0.55079  -0.54146  -0.53721
 Alpha  occ. eigenvalues --   -0.53441  -0.53064  -0.52467  -0.51944  -0.51701
 Alpha  occ. eigenvalues --   -0.51115  -0.50978  -0.50611  -0.50105  -0.49831
 Alpha  occ. eigenvalues --   -0.49584  -0.49525  -0.48811  -0.48336  -0.47988
 Alpha  occ. eigenvalues --   -0.47793  -0.47179  -0.47005  -0.46973  -0.45908
 Alpha  occ. eigenvalues --   -0.45745  -0.45232  -0.43943  -0.43652  -0.43430
 Alpha  occ. eigenvalues --   -0.42786  -0.42568  -0.42211  -0.41981  -0.41882
 Alpha  occ. eigenvalues --   -0.41162  -0.40877  -0.40545  -0.39902  -0.39553
 Alpha  occ. eigenvalues --   -0.39360  -0.39239  -0.38849  -0.38391  -0.37929
 Alpha  occ. eigenvalues --   -0.37311  -0.36215  -0.35833  -0.35346  -0.35128
 Alpha  occ. eigenvalues --   -0.34357  -0.33081  -0.32047  -0.31673  -0.31492
 Alpha  occ. eigenvalues --   -0.29877  -0.28872  -0.28317  -0.27419  -0.25377
 Alpha virt. eigenvalues --   -0.01029   0.00661   0.03239   0.03771   0.09028
 Alpha virt. eigenvalues --    0.10164   0.10906   0.11814   0.12967   0.13534
 Alpha virt. eigenvalues --    0.13870   0.14278   0.15027   0.15481   0.15799

 Mulliken charges:
               1
     1  C   -0.303924
     2  C   -0.304169
     3  C   -0.309621
     4  C   -0.073199
     5  C    0.063578
     6  C   -0.305034
     7  H    0.166269
     8  H    0.160984
     9  H    0.159132
    10  H    0.145923
    11  H    0.156747
    12  H    0.212264
    13  H    0.141342
    14  H    0.179314
    15  H    0.149917
    16  H    0.150251
    17  N   -0.424115
    18  C    0.099338
    19  C    0.084165
    20  C   -0.227477
    21  H    0.204796
    22  C   -0.226546
    23  H    0.263789
    24  C    0.427905
    25  H    0.188007
    26  H    0.207284
    27  N   -0.528329
    28  C   -0.158044
    29  H    0.178340
    30  H    0.199031
    31  C   -0.146685
    32  H    0.169579
    33  H    0.195204
    34  N   -0.757478
    35  S    1.249551
    36  O   -0.645607
    37  O   -0.670073
    38  C    0.048833
    39  C   -0.176632
    40  C   -0.187514
    41  C   -0.169702
    42  C   -0.161714
    43  C   -0.198501
    44  H    0.204500
    45  H    0.139133
    46  H    0.156491
    47  H    0.161947
    48  H    0.157388
    49  O   -0.714431
    50  H    0.482731
    51  C    0.651891
    52  O   -0.522412
    53  O   -0.646300
    54  H    0.485503
    55  C   -0.369409
    56  H    0.201676
    57  H    0.164642
    58  C   -0.065130
    59  H    0.127785
    60  H    0.153873
    61  C   -0.658362
    62  H    0.221807
    63  H    0.187491
    64  H    0.207346
    65  C   -0.287912
    66  H    0.144446
    67  H    0.163894
    68  C   -0.480325
    69  H    0.158809
    70  H    0.158419
    71  H    0.150908
    72  C   -0.337133
    73  H    0.184333
    74  H    0.169962
    75  C   -0.335865
    76  H    0.182010
    77  H    0.173115
 Sum of Mulliken charges =  -0.00000

 Dipole moment (field-independent basis, Debye):
    X=              1.5380    Y=             -0.3229    Z=             -6.5816  Tot=              6.7667
 Quadrupole moment (field-independent basis, Debye-Ang):
   XX=           -198.6469   YY=           -222.7228   ZZ=           -222.2428
   XY=            -11.8106   XZ=             -0.6967   YZ=             12.5165

 Normal termination of Gaussian 16 at Thu Feb  7 23:41:13 2019.
