 Gaussian 16, Revision A.03,
 Gaussian 16:  ES64L-G16RevA.03 25-Dec-2016

 ------------------------------------------
 #p M062X/6-31G* em=gd3 force int=ultrafine
 ------------------------------------------

 -----
 Title
 -----
 Symbolic Z-matrix:
 Charge =  0 Multiplicity = 1

                         Standard orientation:
 ---------------------------------------------------------------------
 Center     Atomic      Atomic             Coordinates (Angstroms)
 Number     Number       Type             X           Y           Z
 ---------------------------------------------------------------------
      1          6           0       -4.783096    0.343106   -0.636763
      2          6           0       -4.927886   -0.957517   -1.432542
      3          6           0       -3.577989   -1.393406   -2.015361
      4          6           0       -2.587361   -1.572742   -0.870899
      5          6           0       -2.396076   -0.245425   -0.091311
      6          6           0       -3.743014    0.212264    0.480329
      7          1           0       -3.670643   -2.323369   -2.586601
      8          1           0       -5.310887   -1.750844   -0.777315
      9          1           0       -5.654340   -0.832225   -2.241587
     10          1           0       -4.476979    1.147352   -1.318410
     11          1           0       -5.749721    0.632332   -0.211549
     12          1           0       -2.968100   -2.330330   -0.178891
     13          1           0       -2.075625    0.508844   -0.821556
     14          1           0       -4.088417   -0.508027    1.229321
     15          1           0       -3.592770    1.176674    0.976901
     16          1           0       -3.230635   -0.609434   -2.701829
     17          7           0       -1.247470   -2.039380   -1.283644
     18          6           0       -0.562071   -1.380436   -2.254736
     19          6           0       -0.548950   -2.791696   -0.391075
     20          6           0        0.795755   -1.416405   -2.337216
     21          1           0       -1.157061   -0.795301   -2.945006
     22          6           0        0.809686   -2.852527   -0.391307
     23          1           0       -1.140749   -3.286293    0.371506
     24          6           0        1.548278   -2.059021   -1.309143
     25          1           0        1.284876   -0.870950   -3.132650
     26          1           0        1.295964   -3.407985    0.398063
     27          7           0        2.867335   -1.929242   -1.216131
     28          6           0        3.590001   -2.308283    0.008459
     29          1           0        3.488973   -3.380161    0.199709
     30          1           0        3.171934   -1.729181    0.845522
     31          6           0        3.591315   -0.895847   -1.966486
     32          1           0        3.845217   -1.267273   -2.966921
     33          1           0        2.956220   -0.009785   -2.053208
     34          7           0       -1.298252   -0.309333    0.860298
     35         16           0       -1.374876   -1.139615    2.259551
     36          8           0       -2.561755   -2.000550    2.228873
     37          8           0       -0.078885   -1.782318    2.496620
     38          6           0       -0.642865    2.703530    0.046431
     39          6           0       -0.168752    2.242731   -1.191769
     40          6           0       -0.964250    2.323959   -2.332732
     41          6           0       -2.251697    2.858334   -2.269637
     42          6           0       -2.737092    3.311519   -1.046591
     43          6           0       -1.934329    3.235185    0.092131
     44          1           0        0.805042    1.768918   -1.232933
     45          1           0       -0.569580    1.973807   -3.284467
     46          1           0       -2.866136    2.925751   -3.163270
     47          1           0       -3.737243    3.730410   -0.976738
     48          1           0       -2.320661    3.604514    1.040138
     49          8           0        0.673200    1.583485    1.905938
     50          1           0       -0.305459   -0.062440    0.557933
     51          6           0        1.797070    0.843632    1.261990
     52          8           0        1.378886    0.232553    0.171268
     53          8           0        2.187206   -0.035415    2.301391
     54          1           0        1.482417   -0.706541    2.347604
     55          6           0        3.012591    1.799176    1.117877
     56          1           0        2.989477    2.523791    1.942073
     57          1           0        3.896887    1.175640    1.301363
     58          6           0        0.212204    2.767433    1.315088
     59          1           0       -0.404005    3.252069    2.083308
     60          1           0        1.051974    3.451849    1.125261
     61          6           0       -1.578042    0.089375    3.527842
     62          1           0       -0.718682    0.759729    3.438403
     63          1           0       -2.516996    0.614777    3.344850
     64          1           0       -1.599439   -0.424621    4.490210
     65          6           0        3.191401    2.512395   -0.219431
     66          1           0        3.110551    1.775888   -1.026319
     67          1           0        2.387463    3.234150   -0.400372
     68          6           0        4.536288    3.233139   -0.302116
     69          1           0        4.665311    3.742834   -1.262078
     70          1           0        4.625929    3.982753    0.491034
     71          1           0        5.367506    2.529026   -0.179049
     72          6           0        5.025417   -1.898825   -0.303611
     73          1           0        5.609988   -1.743215    0.605002
     74          1           0        5.516773   -2.669950   -0.906891
     75          6           0        4.833929   -0.615267   -1.115750
     76          1           0        4.615147    0.212179   -0.436458
     77          1           0        5.701202   -0.348163   -1.723339
 ---------------------------------------------------------------------

 SCF Done:  E(RM062X) =  -1991.35891370     A.U. after   14 cycles

 The electronic state is 1-A.
 Alpha  occ. eigenvalues --  -90.14061 -19.61681 -19.61661 -19.58772 -19.56731
 Alpha  occ. eigenvalues --  -19.51382 -14.85128 -14.80458 -14.75492 -10.63387
 Alpha  occ. eigenvalues --  -10.62761 -10.62320 -10.62078 -10.60659 -10.59222
 Alpha  occ. eigenvalues --  -10.58693 -10.57930 -10.57888 -10.57070 -10.56863
 Alpha  occ. eigenvalues --  -10.56657 -10.55609 -10.55576 -10.55181 -10.55012
 Alpha  occ. eigenvalues --  -10.54775 -10.54720 -10.54656 -10.54508 -10.54336
 Alpha  occ. eigenvalues --  -10.54259 -10.54207 -10.53110 -10.51661 -10.51560
 Alpha  occ. eigenvalues --  -10.49797  -8.45039  -6.37255  -6.37234  -6.37077
 Alpha  occ. eigenvalues --   -1.21891  -1.13664  -1.13474  -1.10141  -1.09357
 Alpha  occ. eigenvalues --   -1.05917  -1.01598  -0.99409  -0.95684  -0.94943
 Alpha  occ. eigenvalues --   -0.93459  -0.90241  -0.88754  -0.85910  -0.85813
 Alpha  occ. eigenvalues --   -0.84791  -0.84650  -0.84321  -0.83018  -0.82610
 Alpha  occ. eigenvalues --   -0.76642  -0.76363  -0.75831  -0.74398  -0.72710
 Alpha  occ. eigenvalues --   -0.71570  -0.68338  -0.68287  -0.67917  -0.67151
 Alpha  occ. eigenvalues --   -0.66761  -0.65193  -0.64868  -0.63521  -0.60582
 Alpha  occ. eigenvalues --   -0.60407  -0.59801  -0.58849  -0.57832  -0.57552
 Alpha  occ. eigenvalues --   -0.57130  -0.56422  -0.55704  -0.55156  -0.54168
 Alpha  occ. eigenvalues --   -0.53458  -0.52631  -0.52392  -0.52354  -0.51878
 Alpha  occ. eigenvalues --   -0.51523  -0.51083  -0.50946  -0.49843  -0.49597
 Alpha  occ. eigenvalues --   -0.49160  -0.48804  -0.48203  -0.48107  -0.48069
 Alpha  occ. eigenvalues --   -0.47621  -0.47427  -0.46894  -0.46471  -0.46092
 Alpha  occ. eigenvalues --   -0.44925  -0.44669  -0.44088  -0.43885  -0.43249
 Alpha  occ. eigenvalues --   -0.42445  -0.42078  -0.41548  -0.41429  -0.41188
 Alpha  occ. eigenvalues --   -0.40876  -0.40444  -0.40018  -0.39851  -0.39485
 Alpha  occ. eigenvalues --   -0.39245  -0.39040  -0.38448  -0.37879  -0.37578
 Alpha  occ. eigenvalues --   -0.37355  -0.36730  -0.36566  -0.35680  -0.34872
 Alpha  occ. eigenvalues --   -0.34347  -0.33884  -0.31739  -0.30978  -0.29717
 Alpha  occ. eigenvalues --   -0.28882  -0.28560  -0.27577  -0.24984  -0.24518
 Alpha virt. eigenvalues --   -0.01424   0.00483   0.03612   0.03826   0.10193
 Alpha virt. eigenvalues --    0.11059   0.11588   0.12098   0.13216   0.13552
 Alpha virt. eigenvalues --    0.14201   0.14678   0.14809   0.15341   0.15598

 Mulliken charges:
               1
     1  C   -0.306078
     2  C   -0.306898
     3  C   -0.310172
     4  C   -0.059189
     5  C    0.057125
     6  C   -0.311847
     7  H    0.173726
     8  H    0.162836
     9  H    0.165118
    10  H    0.150607
    11  H    0.162926
    12  H    0.208420
    13  H    0.172482
    14  H    0.193576
    15  H    0.163334
    16  H    0.153732
    17  N   -0.432211
    18  C    0.069755
    19  C    0.064422
    20  C   -0.205004
    21  H    0.206984
    22  C   -0.209078
    23  H    0.245851
    24  C    0.450274
    25  H    0.190892
    26  H    0.211763
    27  N   -0.528823
    28  C   -0.175239
    29  H    0.169930
    30  H    0.235932
    31  C   -0.153981
    32  H    0.168214
    33  H    0.200631
    34  N   -0.817225
    35  S    1.253906
    36  O   -0.611802
    37  O   -0.609310
    38  C    0.090450
    39  C   -0.178184
    40  C   -0.188924
    41  C   -0.170577
    42  C   -0.163604
    43  C   -0.212141
    44  H    0.203548
    45  H    0.141211
    46  H    0.154579
    47  H    0.158290
    48  H    0.152203
    49  O   -0.547890
    50  H    0.449716
    51  C    0.727926
    52  O   -0.724555
    53  O   -0.718088
    54  H    0.445762
    55  C   -0.337647
    56  H    0.150158
    57  H    0.148615
    58  C   -0.094454
    59  H    0.141311
    60  H    0.146707
    61  C   -0.662702
    62  H    0.270978
    63  H    0.196292
    64  H    0.217333
    65  C   -0.295848
    66  H    0.141646
    67  H    0.147015
    68  C   -0.475832
    69  H    0.149436
    70  H    0.156281
    71  H    0.143892
    72  C   -0.331882
    73  H    0.187583
    74  H    0.163631
    75  C   -0.344245
    76  H    0.194629
    77  H    0.171804
 Sum of Mulliken charges =  -0.00000

 Dipole moment (field-independent basis, Debye):
    X=             -2.1317    Y=             -1.8878    Z=             -6.4884  Tot=              7.0858
 Quadrupole moment (field-independent basis, Debye-Ang):
   XX=           -204.8111   YY=           -223.2537   ZZ=           -219.8493
   XY=            -12.1047   XZ=             -5.2719   YZ=             10.1436

 Normal termination of Gaussian 16 at Thu Feb  7 16:56:02 2019.
