 Gaussian 16, Revision A.03,
 Gaussian 16:  ES64L-G16RevA.03 25-Dec-2016

 ------------------------------------------
 #p M062X/6-31G* em=gd3 force int=ultrafine
 ------------------------------------------

 -----
 Title
 -----
 Symbolic Z-matrix:
 Charge =  0 Multiplicity = 1

                         Standard orientation:
 ---------------------------------------------------------------------
 Center     Atomic      Atomic             Coordinates (Angstroms)
 Number     Number       Type             X           Y           Z
 ---------------------------------------------------------------------
      1          6           0       -4.867805    0.054571   -0.422066
      2          6           0       -4.899377   -1.227396   -1.259786
      3          6           0       -3.516779   -1.526827   -1.851507
      4          6           0       -2.511343   -1.649107   -0.711196
      5          6           0       -2.422132   -0.327687    0.103936
      6          6           0       -3.811157   -0.020836    0.684208
      7          1           0       -3.531655   -2.445156   -2.449714
      8          1           0       -5.212153   -2.070967   -0.630449
      9          1           0       -5.633591   -1.141520   -2.067564
     10          1           0       -4.631818    0.903464   -1.079163
     11          1           0       -5.857100    0.246214    0.007080
     12          1           0       -2.820523   -2.454240   -0.039451
     13          1           0       -2.213029    0.456311   -0.638929
     14          1           0       -4.076047   -0.795242    1.415358
     15          1           0       -3.747258    0.936193    1.216178
     16          1           0       -3.242474   -0.695544   -2.515694
     17          7           0       -1.143830   -2.005773   -1.154886
     18          6           0       -0.535255   -1.314102   -2.145369
     19          6           0       -0.386121   -2.761369   -0.325433
     20          6           0        0.818078   -1.337693   -2.324522
     21          1           0       -1.181108   -0.716834   -2.776040
     22          6           0        0.972938   -2.831003   -0.438875
     23          1           0       -0.919315   -3.265508    0.473401
     24          6           0        1.642338   -2.036848   -1.400081
     25          1           0        1.246997   -0.768173   -3.138451
     26          1           0        1.512389   -3.410334    0.297249
     27          7           0        2.978378   -1.937229   -1.420062
     28          6           0        3.780773   -2.441263   -0.298802
     29          1           0        3.728118   -3.532685   -0.244182
     30          1           0        3.392841   -2.016791    0.637872
     31          6           0        3.667779   -0.852051   -2.134136
     32          1           0        3.924443   -1.172174   -3.151480
     33          1           0        3.022620    0.029378   -2.176620
     34          7           0       -1.298904   -0.282863    1.018078
     35         16           0       -1.259231   -1.231567    2.279867
     36          8           0       -2.245563   -2.334095    2.241472
     37          8           0        0.140875   -1.675910    2.520606
     38          6           0       -1.161359    2.852320   -0.174178
     39          6           0       -0.417293    2.194306   -1.158899
     40          6           0       -0.928458    2.069691   -2.449094
     41          6           0       -2.194876    2.562552   -2.763689
     42          6           0       -2.947366    3.197574   -1.777615
     43          6           0       -2.427373    3.343270   -0.493697
     44          1           0        0.537001    1.742525   -0.893956
     45          1           0       -0.334867    1.577084   -3.215999
     46          1           0       -2.593445    2.454885   -3.768188
     47          1           0       -3.939334    3.576977   -2.005294
     48          1           0       -3.016817    3.833870    0.278098
     49          8           0        0.207214    1.941325    1.613181
     50          1           0       -0.277970    1.103562    1.356203
     51          6           0        2.435999    0.660472    1.240081
     52          8           0        2.134152    0.216959    0.145072
     53          8           0        2.187013    0.038505    2.379917
     54          1           0        1.498828   -0.673377    2.257849
     55          6           0        3.191127    1.953811    1.437806
     56          1           0        2.722415    2.472741    2.278879
     57          1           0        4.216321    1.705057    1.748036
     58          6           0       -0.609892    3.008805    1.228319
     59          1           0       -1.451338    3.156035    1.926262
     60          1           0        0.005737    3.918280    1.279762
     61          6           0       -1.648292   -0.218598    3.703891
     62          1           0       -0.954133    0.625455    3.695863
     63          1           0       -2.678664    0.128388    3.603759
     64          1           0       -1.526803   -0.816787    4.607944
     65          6           0        3.194034    2.823210    0.187401
     66          1           0        3.616861    2.257786   -0.651979
     67          1           0        2.154543    3.039412   -0.083454
     68          6           0        3.965097    4.124112    0.388214
     69          1           0        3.963691    4.732012   -0.521121
     70          1           0        3.520566    4.721168    1.191367
     71          1           0        5.008156    3.928213    0.659937
     72          6           0        5.185230   -1.929178   -0.606343
     73          1           0        5.792458   -1.839682    0.296607
     74          1           0        5.692496   -2.610724   -1.296970
     75          6           0        4.911535   -0.583543   -1.282485
     76          1           0        4.659837    0.165303   -0.525825
     77          1           0        5.751480   -0.215892   -1.875436
 ---------------------------------------------------------------------

 SCF Done:  E(RM062X) =  -1991.38974093     A.U. after   15 cycles

 The electronic state is 1-A.
 Alpha  occ. eigenvalues --  -90.10377 -19.63376 -19.60093 -19.59291 -19.58605
 Alpha  occ. eigenvalues --  -19.58362 -14.84811 -14.80519 -14.69412 -10.65452
 Alpha  occ. eigenvalues --  -10.63238 -10.62394 -10.61517 -10.59149 -10.59099
 Alpha  occ. eigenvalues --  -10.59033 -10.57820 -10.57425 -10.56838 -10.56651
 Alpha  occ. eigenvalues --  -10.56061 -10.55764 -10.55502 -10.54966 -10.54915
 Alpha  occ. eigenvalues --  -10.54859 -10.54579 -10.54541 -10.54491 -10.53753
 Alpha  occ. eigenvalues --  -10.53752 -10.53557 -10.53141 -10.53002 -10.52629
 Alpha  occ. eigenvalues --  -10.52549  -8.41343  -6.33581  -6.33488  -6.33408
 Alpha  occ. eigenvalues --   -1.19122  -1.17920  -1.12944  -1.10312  -1.09848
 Alpha  occ. eigenvalues --   -1.09155  -1.06185  -0.97547  -0.95252  -0.94814
 Alpha  occ. eigenvalues --   -0.92188  -0.89857  -0.88591  -0.88030  -0.85014
 Alpha  occ. eigenvalues --   -0.84957  -0.83648  -0.83504  -0.83301  -0.80202
 Alpha  occ. eigenvalues --   -0.79116  -0.76360  -0.75663  -0.74673  -0.70943
 Alpha  occ. eigenvalues --   -0.70191  -0.69065  -0.68729  -0.68364  -0.67996
 Alpha  occ. eigenvalues --   -0.65769  -0.64724  -0.63950  -0.63428  -0.61638
 Alpha  occ. eigenvalues --   -0.60274  -0.59400  -0.58965  -0.58361  -0.56172
 Alpha  occ. eigenvalues --   -0.55455  -0.55159  -0.55061  -0.54057  -0.53671
 Alpha  occ. eigenvalues --   -0.53437  -0.53080  -0.52370  -0.51974  -0.51726
 Alpha  occ. eigenvalues --   -0.51154  -0.51000  -0.50610  -0.50196  -0.49829
 Alpha  occ. eigenvalues --   -0.49610  -0.49462  -0.48842  -0.48359  -0.48002
 Alpha  occ. eigenvalues --   -0.47770  -0.47169  -0.46975  -0.46923  -0.45943
 Alpha  occ. eigenvalues --   -0.45848  -0.45247  -0.43958  -0.43649  -0.43420
 Alpha  occ. eigenvalues --   -0.42757  -0.42447  -0.42256  -0.41914  -0.41896
 Alpha  occ. eigenvalues --   -0.41157  -0.40839  -0.40579  -0.39921  -0.39521
 Alpha  occ. eigenvalues --   -0.39368  -0.39191  -0.38741  -0.38378  -0.37828
 Alpha  occ. eigenvalues --   -0.37342  -0.36246  -0.35899  -0.35370  -0.35109
 Alpha  occ. eigenvalues --   -0.34406  -0.33139  -0.32101  -0.31710  -0.31505
 Alpha  occ. eigenvalues --   -0.29841  -0.28888  -0.28320  -0.27504  -0.25425
 Alpha virt. eigenvalues --   -0.01022   0.00646   0.03320   0.03804   0.09089
 Alpha virt. eigenvalues --    0.10138   0.10929   0.11777   0.13003   0.13451
 Alpha virt. eigenvalues --    0.13841   0.14224   0.15158   0.15510   0.15746

 Mulliken charges:
               1
     1  C   -0.303953
     2  C   -0.304190
     3  C   -0.309755
     4  C   -0.073412
     5  C    0.062195
     6  C   -0.305246
     7  H    0.165862
     8  H    0.160903
     9  H    0.159157
    10  H    0.146513
    11  H    0.156646
    12  H    0.213028
    13  H    0.141491
    14  H    0.179678
    15  H    0.149037
    16  H    0.151014
    17  N   -0.424542
    18  C    0.100326
    19  C    0.084142
    20  C   -0.227935
    21  H    0.205331
    22  C   -0.227192
    23  H    0.264236
    24  C    0.428475
    25  H    0.188254
    26  H    0.206850
    27  N   -0.529193
    28  C   -0.157258
    29  H    0.178406
    30  H    0.199208
    31  C   -0.147247
    32  H    0.169533
    33  H    0.196218
    34  N   -0.755126
    35  S    1.249347
    36  O   -0.646917
    37  O   -0.670538
    38  C    0.048852
    39  C   -0.177200
    40  C   -0.187004
    41  C   -0.170022
    42  C   -0.162281
    43  C   -0.197627
    44  H    0.202343
    45  H    0.139447
    46  H    0.156408
    47  H    0.161790
    48  H    0.156481
    49  O   -0.710998
    50  H    0.480669
    51  C    0.645300
    52  O   -0.523451
    53  O   -0.644654
    54  H    0.485720
    55  C   -0.367160
    56  H    0.200123
    57  H    0.163940
    58  C   -0.068380
    59  H    0.128676
    60  H    0.159634
    61  C   -0.656020
    62  H    0.218553
    63  H    0.188177
    64  H    0.208066
    65  C   -0.287026
    66  H    0.143258
    67  H    0.167423
    68  C   -0.480410
    69  H    0.158356
    70  H    0.158616
    71  H    0.149871
    72  C   -0.337404
    73  H    0.184020
    74  H    0.170066
    75  C   -0.335641
    76  H    0.182813
    77  H    0.173327
 Sum of Mulliken charges =  -0.00000

 Dipole moment (field-independent basis, Debye):
    X=              1.5623    Y=             -0.4091    Z=             -6.4994  Tot=              6.6970
 Quadrupole moment (field-independent basis, Debye-Ang):
   XX=           -197.9235   YY=           -223.4337   ZZ=           -221.7145
   XY=            -12.0978   XZ=             -1.3609   YZ=             12.3218

 Normal termination of Gaussian 16 at Fri Feb  8 00:53:21 2019.
