 Gaussian 16, Revision A.03,
 Gaussian 16:  ES64L-G16RevA.03 25-Dec-2016

 ------------------------------------------
 #p M062X/6-31G* em=gd3 force int=ultrafine
 ------------------------------------------

 -----
 Title
 -----
 Symbolic Z-matrix:
 Charge =  0 Multiplicity = 1

                         Standard orientation:
 ---------------------------------------------------------------------
 Center     Atomic      Atomic             Coordinates (Angstroms)
 Number     Number       Type             X           Y           Z
 ---------------------------------------------------------------------
      1          6           0       -4.786997    0.447657   -0.517696
      2          6           0       -4.991306   -0.847666   -1.309141
      3          6           0       -3.673075   -1.318688   -1.935789
      4          6           0       -2.650747   -1.524767   -0.824169
      5          6           0       -2.402613   -0.205962   -0.047390
      6          6           0       -3.717044    0.287396    0.567143
      7          1           0       -3.808932   -2.246228   -2.502148
      8          1           0       -5.373711   -1.631392   -0.642048
      9          1           0       -5.740241   -0.702438   -2.093952
     10          1           0       -4.479502    1.243919   -1.208222
     11          1           0       -5.731915    0.762941   -0.063352
     12          1           0       -3.026250   -2.276275   -0.122967
     13          1           0       -2.085243    0.542792   -0.784423
     14          1           0       -4.058043   -0.423578    1.327143
     15          1           0       -3.524200    1.247165    1.058315
     16          1           0       -3.327245   -0.545050   -2.634635
     17          7           0       -1.334476   -2.018324   -1.280302
     18          6           0       -0.651844   -1.339800   -2.241115
     19          6           0       -0.635724   -2.811378   -0.424714
     20          6           0        0.703473   -1.394229   -2.344745
     21          1           0       -1.247094   -0.719472   -2.899865
     22          6           0        0.721224   -2.902790   -0.454143
     23          1           0       -1.222987   -3.312566    0.337195
     24          6           0        1.460643   -2.090900   -1.355467
     25          1           0        1.191459   -0.826592   -3.125467
     26          1           0        1.209248   -3.494258    0.307385
     27          7           0        2.782535   -1.988188   -1.280348
     28          6           0        3.517680   -2.445529   -0.091296
     29          1           0        3.399512   -3.523983    0.045003
     30          1           0        3.126027   -1.902057    0.781177
     31          6           0        3.508944   -0.916130   -1.975657
     32          1           0        3.751267   -1.229662   -2.998509
     33          1           0        2.879942   -0.022063   -1.993853
     34          7           0       -1.278338   -0.302721    0.870647
     35         16           0       -1.323682   -1.144806    2.266717
     36          8           0       -2.532261   -1.975027    2.262690
     37          8           0       -0.035623   -1.818233    2.450774
     38          6           0       -0.585749    2.680939    0.010464
     39          6           0       -0.113776    2.180535   -1.213404
     40          6           0       -0.894399    2.266550   -2.364747
     41          6           0       -2.163635    2.844389   -2.327752
     42          6           0       -2.645615    3.339937   -1.119339
     43          6           0       -1.858830    3.258471    0.029934
     44          1           0        0.843547    1.671395   -1.230683
     45          1           0       -0.501085    1.884360   -3.304614
     46          1           0       -2.765710    2.914055   -3.229552
     47          1           0       -3.630996    3.795241   -1.069341
     48          1           0       -2.243569    3.658990    0.965935
     49          8           0        0.716097    1.545066    1.871343
     50          1           0       -0.300975   -0.058761    0.554099
     51          6           0        1.866872    0.819408    1.242044
     52          8           0        1.475553    0.209650    0.143697
     53          8           0        2.244078   -0.060671    2.284839
     54          1           0        1.551021   -0.745531    2.300799
     55          6           0        3.061226    1.801883    1.132497
     56          1           0        2.999739    2.517993    1.962071
     57          1           0        3.961254    1.205940    1.327964
     58          6           0        0.248934    2.732413    1.294350
     59          1           0       -0.387500    3.194723    2.060339
     60          1           0        1.080768    3.434024    1.131543
     61          6           0       -1.457297    0.073721    3.553958
     62          1           0       -0.583362    0.722543    3.448297
     63          1           0       -2.386904    0.625654    3.404240
     64          1           0       -1.465602   -0.452896    4.509715
     65          6           0        3.241206    2.538383   -0.191933
     66          1           0        3.328992    1.806944   -1.002828
     67          1           0        2.360779    3.141356   -0.437357
     68          6           0        4.473894    3.440622   -0.167792
     69          1           0        4.620770    3.956287   -1.121828
     70          1           0        4.379704    4.201865    0.613690
     71          1           0        5.379116    2.861909    0.047920
     72          6           0        4.953217   -2.039743   -0.404639
     73          1           0        5.560018   -1.957926    0.498863
     74          1           0        5.417022   -2.774084   -1.072520
     75          6           0        4.760106   -0.700239   -1.119062
     76          1           0        4.543926    0.073022   -0.377357
     77          1           0        5.622475   -0.389961   -1.712771
 ---------------------------------------------------------------------

 SCF Done:  E(RM062X) =  -1991.35830403     A.U. after   14 cycles

 The electronic state is 1-A.
 Alpha  occ. eigenvalues --  -90.14229 -19.61829 -19.61801 -19.58639 -19.56685
 Alpha  occ. eigenvalues --  -19.51192 -14.85187 -14.80438 -14.75872 -10.63421
 Alpha  occ. eigenvalues --  -10.62789 -10.62219 -10.62209 -10.60759 -10.59400
 Alpha  occ. eigenvalues --  -10.58400 -10.58004 -10.57964 -10.57176 -10.56888
 Alpha  occ. eigenvalues --  -10.56709 -10.55678 -10.55625 -10.55101 -10.54852
 Alpha  occ. eigenvalues --  -10.54817 -10.54793 -10.54738 -10.54587 -10.54409
 Alpha  occ. eigenvalues --  -10.54352 -10.54332 -10.53063 -10.51458 -10.51416
 Alpha  occ. eigenvalues --  -10.49655  -8.45206  -6.37424  -6.37400  -6.37242
 Alpha  occ. eigenvalues --   -1.22050  -1.13592  -1.13455  -1.10304  -1.09338
 Alpha  occ. eigenvalues --   -1.05849  -1.01803  -0.99297  -0.95767  -0.94995
 Alpha  occ. eigenvalues --   -0.93510  -0.90312  -0.88758  -0.85944  -0.85749
 Alpha  occ. eigenvalues --   -0.84825  -0.84725  -0.84212  -0.83061  -0.82727
 Alpha  occ. eigenvalues --   -0.76675  -0.76247  -0.75829  -0.74340  -0.72826
 Alpha  occ. eigenvalues --   -0.71671  -0.68328  -0.68216  -0.67940  -0.67235
 Alpha  occ. eigenvalues --   -0.66736  -0.65243  -0.64868  -0.63531  -0.60545
 Alpha  occ. eigenvalues --   -0.60404  -0.59772  -0.59093  -0.57803  -0.57613
 Alpha  occ. eigenvalues --   -0.57195  -0.56445  -0.55799  -0.55169  -0.54208
 Alpha  occ. eigenvalues --   -0.53568  -0.52670  -0.52483  -0.52464  -0.51906
 Alpha  occ. eigenvalues --   -0.51556  -0.51007  -0.50701  -0.49889  -0.49531
 Alpha  occ. eigenvalues --   -0.49164  -0.48852  -0.48210  -0.48140  -0.47990
 Alpha  occ. eigenvalues --   -0.47690  -0.47477  -0.46926  -0.46421  -0.46103
 Alpha  occ. eigenvalues --   -0.44889  -0.44742  -0.44162  -0.43861  -0.43266
 Alpha  occ. eigenvalues --   -0.42533  -0.42154  -0.41383  -0.41295  -0.41093
 Alpha  occ. eigenvalues --   -0.40905  -0.40497  -0.39991  -0.39796  -0.39283
 Alpha  occ. eigenvalues --   -0.39249  -0.39081  -0.38433  -0.37992  -0.37613
 Alpha  occ. eigenvalues --   -0.37391  -0.36747  -0.36551  -0.35772  -0.34915
 Alpha  occ. eigenvalues --   -0.34394  -0.33993  -0.31669  -0.31134  -0.29776
 Alpha  occ. eigenvalues --   -0.28870  -0.28605  -0.27663  -0.24778  -0.24363
 Alpha virt. eigenvalues --   -0.01529   0.00393   0.03539   0.03743   0.10131
 Alpha virt. eigenvalues --    0.10963   0.11643   0.12233   0.13161   0.13487
 Alpha virt. eigenvalues --    0.14223   0.14556   0.14756   0.15222   0.15600

 Mulliken charges:
               1
     1  C   -0.306293
     2  C   -0.307184
     3  C   -0.309167
     4  C   -0.060330
     5  C    0.056405
     6  C   -0.311313
     7  H    0.174096
     8  H    0.162895
     9  H    0.165607
    10  H    0.150969
    11  H    0.163496
    12  H    0.209123
    13  H    0.173272
    14  H    0.193296
    15  H    0.163586
    16  H    0.154375
    17  N   -0.430705
    18  C    0.067358
    19  C    0.064063
    20  C   -0.201544
    21  H    0.206326
    22  C   -0.209391
    23  H    0.245025
    24  C    0.445854
    25  H    0.192177
    26  H    0.211483
    27  N   -0.525748
    28  C   -0.170530
    29  H    0.169730
    30  H    0.228843
    31  C   -0.154762
    32  H    0.165231
    33  H    0.206470
    34  N   -0.814918
    35  S    1.252790
    36  O   -0.611510
    37  O   -0.605690
    38  C    0.083577
    39  C   -0.185211
    40  C   -0.189894
    41  C   -0.171413
    42  C   -0.163744
    43  C   -0.211997
    44  H    0.212798
    45  H    0.140500
    46  H    0.154937
    47  H    0.158605
    48  H    0.152470
    49  O   -0.551816
    50  H    0.448212
    51  C    0.723806
    52  O   -0.721206
    53  O   -0.717849
    54  H    0.444142
    55  C   -0.338519
    56  H    0.148536
    57  H    0.151207
    58  C   -0.090554
    59  H    0.139528
    60  H    0.147815
    61  C   -0.663373
    62  H    0.274228
    63  H    0.196377
    64  H    0.217680
    65  C   -0.292098
    66  H    0.134887
    67  H    0.146161
    68  C   -0.473292
    69  H    0.148785
    70  H    0.154261
    71  H    0.145451
    72  C   -0.331956
    73  H    0.186977
    74  H    0.162854
    75  C   -0.343001
    76  H    0.197781
    77  H    0.170961
 Sum of Mulliken charges =  -0.00000

 Dipole moment (field-independent basis, Debye):
    X=             -2.6317    Y=             -1.9663    Z=             -6.3244  Tot=              7.1267
 Quadrupole moment (field-independent basis, Debye-Ang):
   XX=           -205.9004   YY=           -222.5985   ZZ=           -220.0017
   XY=            -12.4676   XZ=             -5.2327   YZ=             10.0650

 Normal termination of Gaussian 16 at Thu Feb  7 14:21:44 2019.
