 Gaussian 16, Revision A.03,
 Gaussian 16:  ES64L-G16RevA.03 25-Dec-2016

 ------------------------------------------
 #p M062X/6-31G* em=gd3 force int=ultrafine
 ------------------------------------------

 -----
 Title
 -----
 Symbolic Z-matrix:
 Charge =  0 Multiplicity = 1

                         Standard orientation:
 ---------------------------------------------------------------------
 Center     Atomic      Atomic             Coordinates (Angstroms)
 Number     Number       Type             X           Y           Z
 ---------------------------------------------------------------------
      1          6           0       -4.794099    0.456857   -0.516223
      2          6           0       -5.001019   -0.845095   -1.296031
      3          6           0       -3.684078   -1.323193   -1.919880
      4          6           0       -2.660230   -1.520954   -0.808093
      5          6           0       -2.410790   -0.196741   -0.041670
      6          6           0       -3.723963    0.303918    0.569556
      7          1           0       -3.821481   -2.255454   -2.478016
      8          1           0       -5.383803   -1.622386   -0.621660
      9          1           0       -5.750526   -0.705896   -2.081388
     10          1           0       -4.485592    1.246550   -1.213914
     11          1           0       -5.738278    0.777707   -0.064243
     12          1           0       -3.034639   -2.267251   -0.100707
     13          1           0       -2.092432    0.546018   -0.784313
     14          1           0       -4.065873   -0.399882    1.335683
     15          1           0       -3.529061    1.267403    1.052670
     16          1           0       -3.338201   -0.556108   -2.625858
     17          7           0       -1.344939   -2.017998   -1.263285
     18          6           0       -0.663344   -1.345344   -2.229099
     19          6           0       -0.645781   -2.809045   -0.406333
     20          6           0        0.691376   -1.404387   -2.337061
     21          1           0       -1.258807   -0.725506   -2.888063
     22          6           0        0.710672   -2.906024   -0.440951
     23          1           0       -1.231713   -3.304155    0.360521
     24          6           0        1.449865   -2.101394   -1.349078
     25          1           0        1.178694   -0.840670   -3.121095
     26          1           0        1.199376   -3.495758    0.321471
     27          7           0        2.772539   -2.005390   -1.281082
     28          6           0        3.511136   -2.468810   -0.096685
     29          1           0        3.388575   -3.547033    0.037631
     30          1           0        3.126256   -1.925378    0.778781
     31          6           0        3.500947   -0.934732   -1.977212
     32          1           0        3.740686   -1.248312   -3.000680
     33          1           0        2.875225   -0.038284   -1.992005
     34          7           0       -1.286240   -0.287468    0.876989
     35         16           0       -1.327561   -1.121836    2.279037
     36          8           0       -2.543476   -1.940889    2.286404
     37          8           0       -0.044263   -1.805325    2.457288
     38          6           0       -0.572115    2.672981   -0.013013
     39          6           0       -0.099838    2.159295   -1.231232
     40          6           0       -0.877420    2.238884   -2.385169
     41          6           0       -2.143765    2.823241   -2.356560
     42          6           0       -2.625827    3.332494   -1.153798
     43          6           0       -1.842232    3.257401   -0.001920
     44          1           0        0.855206    1.645337   -1.240798
     45          1           0       -0.483693    1.846299   -3.320627
     46          1           0       -2.743358    2.887601   -3.260393
     47          1           0       -3.608869    3.793373   -1.110423
     48          1           0       -2.227328    3.668064    0.929462
     49          8           0        0.724850    1.543331    1.855467
     50          1           0       -0.312047   -0.048983    0.556601
     51          6           0        1.881491    0.815868    1.234073
     52          8           0        1.496909    0.204044    0.135506
     53          8           0        2.250672   -0.061586    2.282133
     54          1           0        1.557063   -0.745580    2.294110
     55          6           0        3.074247    1.800395    1.131684
     56          1           0        3.004904    2.516655    1.960555
     57          1           0        3.975825    1.208250    1.332417
     58          6           0        0.258564    2.728727    1.273642
     59          1           0       -0.381407    3.192218    2.036128
     60          1           0        1.089934    3.431401    1.112073
     61          6           0       -1.441141    0.105310    3.559861
     62          1           0       -0.561149    0.744393    3.445326
     63          1           0       -2.366015    0.665762    3.412615
     64          1           0       -1.448901   -0.416217    4.518402
     65          6           0        3.257444    2.537999   -0.191826
     66          1           0        3.386838    1.808423   -0.998486
     67          1           0        2.363624    3.110140   -0.458041
     68          6           0        4.459736    3.479611   -0.143980
     69          1           0        4.613997    3.994196   -1.097396
     70          1           0        4.323358    4.243005    0.631246
     71          1           0        5.377963    2.930324    0.097237
     72          6           0        4.946771   -2.067912   -0.415450
     73          1           0        5.558713   -1.992835    0.485143
     74          1           0        5.403956   -2.800917   -1.089404
     75          6           0        4.753949   -0.724479   -1.122087
     76          1           0        4.538163    0.044051   -0.375248
     77          1           0        5.615409   -0.411017   -1.715442
 ---------------------------------------------------------------------

 SCF Done:  E(RM062X) =  -1991.35807695     A.U. after   14 cycles

 The electronic state is 1-A.
 Alpha  occ. eigenvalues --  -90.14278 -19.61872 -19.61839 -19.58611 -19.56672
 Alpha  occ. eigenvalues --  -19.51126 -14.85207 -14.80424 -14.75982 -10.63417
 Alpha  occ. eigenvalues --  -10.62789 -10.62238 -10.62173 -10.60789 -10.59444
 Alpha  occ. eigenvalues --  -10.58355 -10.58002 -10.57971 -10.57184 -10.56891
 Alpha  occ. eigenvalues --  -10.56727 -10.55696 -10.55647 -10.55088 -10.54862
 Alpha  occ. eigenvalues --  -10.54843 -10.54757 -10.54748 -10.54598 -10.54416
 Alpha  occ. eigenvalues --  -10.54377 -10.54339 -10.53048 -10.51439 -10.51381
 Alpha  occ. eigenvalues --  -10.49625  -8.45255  -6.37473  -6.37448  -6.37290
 Alpha  occ. eigenvalues --   -1.22097  -1.13601  -1.13410  -1.10351  -1.09328
 Alpha  occ. eigenvalues --   -1.05824  -1.01859  -0.99263  -0.95785  -0.95002
 Alpha  occ. eigenvalues --   -0.93523  -0.90319  -0.88762  -0.85983  -0.85711
 Alpha  occ. eigenvalues --   -0.84828  -0.84738  -0.84191  -0.83065  -0.82755
 Alpha  occ. eigenvalues --   -0.76683  -0.76207  -0.75824  -0.74315  -0.72858
 Alpha  occ. eigenvalues --   -0.71693  -0.68327  -0.68204  -0.67940  -0.67262
 Alpha  occ. eigenvalues --   -0.66723  -0.65256  -0.64866  -0.63533  -0.60536
 Alpha  occ. eigenvalues --   -0.60403  -0.59762  -0.59155  -0.57799  -0.57630
 Alpha  occ. eigenvalues --   -0.57212  -0.56453  -0.55806  -0.55162  -0.54216
 Alpha  occ. eigenvalues --   -0.53581  -0.52688  -0.52507  -0.52486  -0.51909
 Alpha  occ. eigenvalues --   -0.51560  -0.50991  -0.50650  -0.49899  -0.49504
 Alpha  occ. eigenvalues --   -0.49164  -0.48869  -0.48212  -0.48135  -0.47964
 Alpha  occ. eigenvalues --   -0.47707  -0.47488  -0.46943  -0.46403  -0.46099
 Alpha  occ. eigenvalues --   -0.44907  -0.44737  -0.44180  -0.43846  -0.43271
 Alpha  occ. eigenvalues --   -0.42550  -0.42164  -0.41362  -0.41268  -0.41068
 Alpha  occ. eigenvalues --   -0.40903  -0.40514  -0.39992  -0.39778  -0.39260
 Alpha  occ. eigenvalues --   -0.39241  -0.39088  -0.38425  -0.38024  -0.37635
 Alpha  occ. eigenvalues --   -0.37382  -0.36752  -0.36534  -0.35801  -0.34925
 Alpha  occ. eigenvalues --   -0.34401  -0.34017  -0.31674  -0.31164  -0.29782
 Alpha  occ. eigenvalues --   -0.28866  -0.28607  -0.27678  -0.24705  -0.24313
 Alpha virt. eigenvalues --   -0.01526   0.00386   0.03527   0.03734   0.10124
 Alpha virt. eigenvalues --    0.10928   0.11622   0.12257   0.13150   0.13462
 Alpha virt. eigenvalues --    0.14225   0.14508   0.14753   0.15226   0.15598

 Mulliken charges:
               1
     1  C   -0.306297
     2  C   -0.307239
     3  C   -0.309143
     4  C   -0.060286
     5  C    0.056051
     6  C   -0.311063
     7  H    0.174219
     8  H    0.162967
     9  H    0.165720
    10  H    0.150817
    11  H    0.163681
    12  H    0.209044
    13  H    0.173512
    14  H    0.193744
    15  H    0.163492
    16  H    0.154541
    17  N   -0.431067
    18  C    0.067522
    19  C    0.064603
    20  C   -0.201438
    21  H    0.206165
    22  C   -0.209708
    23  H    0.244709
    24  C    0.446000
    25  H    0.192281
    26  H    0.211405
    27  N   -0.525415
    28  C   -0.170070
    29  H    0.169665
    30  H    0.227920
    31  C   -0.154479
    32  H    0.164720
    33  H    0.207040
    34  N   -0.813714
    35  S    1.251956
    36  O   -0.610679
    37  O   -0.604715
    38  C    0.082020
    39  C   -0.186305
    40  C   -0.190088
    41  C   -0.171689
    42  C   -0.163836
    43  C   -0.211732
    44  H    0.214541
    45  H    0.140390
    46  H    0.154957
    47  H    0.158592
    48  H    0.152424
    49  O   -0.553052
    50  H    0.447403
    51  C    0.722614
    52  O   -0.720431
    53  O   -0.717521
    54  H    0.443216
    55  C   -0.338254
    56  H    0.148253
    57  H    0.151193
    58  C   -0.089652
    59  H    0.139004
    60  H    0.148042
    61  C   -0.663515
    62  H    0.275129
    63  H    0.196515
    64  H    0.217837
    65  C   -0.291248
    66  H    0.134103
    67  H    0.146133
    68  C   -0.473176
    69  H    0.148714
    70  H    0.153571
    71  H    0.145727
    72  C   -0.332069
    73  H    0.186782
    74  H    0.162728
    75  C   -0.342795
    76  H    0.198230
    77  H    0.170786
 Sum of Mulliken charges =  -0.00000

 Dipole moment (field-independent basis, Debye):
    X=             -2.7079    Y=             -2.0209    Z=             -6.2902  Tot=              7.1403
 Quadrupole moment (field-independent basis, Debye-Ang):
   XX=           -206.1084   YY=           -222.3584   ZZ=           -220.1158
   XY=            -12.5673   XZ=             -5.1069   YZ=             10.1101

 Normal termination of Gaussian 16 at Thu Feb  7 13:52:04 2019.
