 Gaussian 16, Revision A.03,
 Gaussian 16:  ES64L-G16RevA.03 25-Dec-2016

 ------------------------------------------
 #p M062X/6-31G* em=gd3 force int=ultrafine
 ------------------------------------------

 -----
 Title
 -----
 Symbolic Z-matrix:
 Charge =  0 Multiplicity = 1

                         Standard orientation:
 ---------------------------------------------------------------------
 Center     Atomic      Atomic             Coordinates (Angstroms)
 Number     Number       Type             X           Y           Z
 ---------------------------------------------------------------------
      1          6           0       -4.864858    0.500086   -0.556854
      2          6           0       -5.037429   -0.802637   -1.343417
      3          6           0       -3.697760   -1.271264   -1.923892
      4          6           0       -2.702909   -1.467376   -0.784457
      5          6           0       -2.499636   -0.146837   -0.002943
      6          6           0       -3.833950    0.346115    0.565003
      7          1           0       -3.810541   -2.201468   -2.490753
      8          1           0       -5.438239   -1.581961   -0.682039
      9          1           0       -5.760578   -0.668032   -2.153823
     10          1           0       -4.531497    1.291833   -1.241561
     11          1           0       -5.825683    0.818494   -0.139920
     12          1           0       -3.087846   -2.225086   -0.094194
     13          1           0       -2.155557    0.601772   -0.728192
     14          1           0       -4.196413   -0.360839    1.318823
     15          1           0       -3.656340    1.308277    1.058346
     16          1           0       -3.334999   -0.498258   -2.614632
     17          7           0       -1.373407   -1.949424   -1.213740
     18          6           0       -0.688097   -1.303472   -2.195166
     19          6           0       -0.679889   -2.742870   -0.354889
     20          6           0        0.662827   -1.399735   -2.324458
     21          1           0       -1.276525   -0.678789   -2.855039
     22          6           0        0.672738   -2.875310   -0.410080
     23          1           0       -1.266255   -3.221595    0.421712
     24          6           0        1.421947   -2.113843   -1.348998
     25          1           0        1.151111   -0.857934   -3.123431
     26          1           0        1.156685   -3.473193    0.349066
     27          7           0        2.748747   -2.080180   -1.318655
     28          6           0        3.485379   -2.570597   -0.142694
     29          1           0        3.343309   -3.648024   -0.019252
     30          1           0        3.114967   -2.027461    0.738440
     31          6           0        3.516333   -1.045390   -2.032066
     32          1           0        3.774882   -1.399635   -3.037807
     33          1           0        2.919576   -0.132008   -2.084137
     34          7           0       -1.409877   -0.233942    0.953744
     35         16           0       -1.419008   -1.085373    2.347699
     36          8           0       -2.655421   -1.869947    2.363356
     37          8           0       -0.147282   -1.795209    2.484750
     38          6           0       -0.525661    2.659621   -0.079805
     39          6           0       -0.046310    2.068316   -1.257337
     40          6           0       -0.791294    2.141170   -2.434214
     41          6           0       -2.027628    2.786181   -2.460464
     42          6           0       -2.515667    3.367675   -1.291908
     43          6           0       -1.766064    3.304012   -0.117534
     44          1           0        0.887203    1.509805   -1.207245
     45          1           0       -0.396348    1.693886   -3.344415
     46          1           0       -2.601432    2.842092   -3.381426
     47          1           0       -3.477200    3.873721   -1.294788
     48          1           0       -2.153794    3.764453    0.789120
     49          8           0        0.715721    1.411794    1.696761
     50          1           0       -0.492031    0.181385    0.744763
     51          6           0        2.021574    0.765519    1.174590
     52          8           0        1.811504    0.188654    0.033708
     53          8           0        2.290478   -0.119688    2.246582
     54          1           0        1.584559   -0.789659    2.201418
     55          6           0        3.139032    1.830216    1.236275
     56          1           0        2.948796    2.520525    2.068266
     57          1           0        4.058156    1.291277    1.500445
     58          6           0        0.271326    2.652347    1.223956
     59          1           0       -0.385795    3.064796    2.003785
     60          1           0        1.107630    3.360285    1.130218
     61          6           0       -1.451185    0.140688    3.634554
     62          1           0       -0.561752    0.758547    3.477170
     63          1           0       -2.370745    0.719557    3.536215
     64          1           0       -1.415107   -0.380296    4.592769
     65          6           0        3.374582    2.594407   -0.064398
     66          1           0        3.631728    1.878310   -0.853454
     67          1           0        2.454754    3.082200   -0.407826
     68          6           0        4.478271    3.639742    0.082710
     69          1           0        4.667941    4.167589   -0.857095
     70          1           0        4.209040    4.386870    0.837810
     71          1           0        5.416855    3.174737    0.404645
     72          6           0        4.927355   -2.187763   -0.453672
     73          1           0        5.534555   -2.126120    0.451279
     74          1           0        5.380415   -2.921456   -1.129973
     75          6           0        4.749428   -0.838225   -1.150308
     76          1           0        4.500686   -0.081173   -0.401261
     77          1           0        5.623010   -0.516116   -1.721112
 ---------------------------------------------------------------------

 SCF Done:  E(RM062X) =  -1991.35590757     A.U. after   15 cycles

 The electronic state is 1-A.
 Alpha  occ. eigenvalues --  -90.14814 -19.62398 -19.62185 -19.58569 -19.56787
 Alpha  occ. eigenvalues --  -19.50455 -14.85237 -14.80094 -14.76755 -10.63205
 Alpha  occ. eigenvalues --  -10.62665 -10.62174 -10.62025 -10.61095 -10.59898
 Alpha  occ. eigenvalues --  -10.57839 -10.57807 -10.57641 -10.57029 -10.56991
 Alpha  occ. eigenvalues --  -10.56913 -10.56260 -10.55892 -10.55100 -10.55062
 Alpha  occ. eigenvalues --  -10.54977 -10.54816 -10.54693 -10.54692 -10.54614
 Alpha  occ. eigenvalues --  -10.54446 -10.54147 -10.53050 -10.51093 -10.50987
 Alpha  occ. eigenvalues --  -10.49451  -8.45781  -6.38009  -6.37963  -6.37823
 Alpha  occ. eigenvalues --   -1.22593  -1.13525  -1.12906  -1.10816  -1.08946
 Alpha  occ. eigenvalues --   -1.05789  -1.02536  -0.99515  -0.95877  -0.95163
 Alpha  occ. eigenvalues --   -0.93515  -0.90182  -0.88618  -0.86518  -0.85319
 Alpha  occ. eigenvalues --   -0.84921  -0.84869  -0.83765  -0.83237  -0.83097
 Alpha  occ. eigenvalues --   -0.76614  -0.75917  -0.75608  -0.74257  -0.73286
 Alpha  occ. eigenvalues --   -0.71796  -0.68228  -0.68172  -0.67780  -0.67525
 Alpha  occ. eigenvalues --   -0.66464  -0.65498  -0.64827  -0.63398  -0.60494
 Alpha  occ. eigenvalues --   -0.60347  -0.59970  -0.59480  -0.57889  -0.57691
 Alpha  occ. eigenvalues --   -0.57213  -0.56452  -0.55751  -0.55122  -0.54364
 Alpha  occ. eigenvalues --   -0.53590  -0.53082  -0.52697  -0.52477  -0.52107
 Alpha  occ. eigenvalues --   -0.51704  -0.50812  -0.50200  -0.49916  -0.49341
 Alpha  occ. eigenvalues --   -0.49206  -0.48985  -0.48422  -0.48145  -0.47966
 Alpha  occ. eigenvalues --   -0.47735  -0.47620  -0.47174  -0.46151  -0.45833
 Alpha  occ. eigenvalues --   -0.45191  -0.45048  -0.44362  -0.43896  -0.43234
 Alpha  occ. eigenvalues --   -0.42520  -0.42292  -0.41133  -0.40950  -0.40823
 Alpha  occ. eigenvalues --   -0.40672  -0.40446  -0.40045  -0.39842  -0.39377
 Alpha  occ. eigenvalues --   -0.39205  -0.38921  -0.38558  -0.38355  -0.37857
 Alpha  occ. eigenvalues --   -0.37334  -0.36509  -0.36420  -0.36086  -0.34997
 Alpha  occ. eigenvalues --   -0.34477  -0.34258  -0.31801  -0.31320  -0.29960
 Alpha  occ. eigenvalues --   -0.29133  -0.28788  -0.27750  -0.24060  -0.23873
 Alpha virt. eigenvalues --   -0.01281   0.00520   0.03269   0.03591   0.10132
 Alpha virt. eigenvalues --    0.10592   0.11328   0.12539   0.13173   0.13268
 Alpha virt. eigenvalues --    0.14107   0.14418   0.14935   0.15473   0.15553

 Mulliken charges:
               1
     1  C   -0.306418
     2  C   -0.307815
     3  C   -0.310758
     4  C   -0.059261
     5  C    0.061333
     6  C   -0.307705
     7  H    0.175568
     8  H    0.163228
     9  H    0.166875
    10  H    0.151017
    11  H    0.165101
    12  H    0.206754
    13  H    0.175596
    14  H    0.193794
    15  H    0.162123
    16  H    0.156182
    17  N   -0.437371
    18  C    0.076267
    19  C    0.075522
    20  C   -0.207013
    21  H    0.203672
    22  C   -0.217867
    23  H    0.243035
    24  C    0.449784
    25  H    0.192249
    26  H    0.210108
    27  N   -0.519423
    28  C   -0.167178
    29  H    0.167059
    30  H    0.223556
    31  C   -0.147071
    32  H    0.160792
    33  H    0.205829
    34  N   -0.802532
    35  S    1.241248
    36  O   -0.603250
    37  O   -0.592049
    38  C    0.055132
    39  C   -0.196025
    40  C   -0.191953
    41  C   -0.172377
    42  C   -0.165490
    43  C   -0.205790
    44  H    0.230796
    45  H    0.141511
    46  H    0.155866
    47  H    0.159400
    48  H    0.153512
    49  O   -0.584786
    50  H    0.443252
    51  C    0.717778
    52  O   -0.702782
    53  O   -0.707181
    54  H    0.432343
    55  C   -0.340526
    56  H    0.143584
    57  H    0.150235
    58  C   -0.082792
    59  H    0.132980
    60  H    0.154698
    61  C   -0.665305
    62  H    0.271756
    63  H    0.199908
    64  H    0.221910
    65  C   -0.285621
    66  H    0.140482
    67  H    0.140694
    68  C   -0.474354
    69  H    0.147842
    70  H    0.149972
    71  H    0.147836
    72  C   -0.333724
    73  H    0.185069
    74  H    0.160134
    75  C   -0.339130
    76  H    0.204151
    77  H    0.166013
 Sum of Mulliken charges =  -0.00000

 Dipole moment (field-independent basis, Debye):
    X=             -3.5965    Y=             -1.8197    Z=             -5.7841  Tot=              7.0500
 Quadrupole moment (field-independent basis, Debye-Ang):
   XX=           -208.4438   YY=           -221.9662   ZZ=           -218.7893
   XY=            -13.2321   XZ=             -4.1823   YZ=             10.6282

 Normal termination of Gaussian 16 at Thu Feb  7 11:00:31 2019.
