 Gaussian 16, Revision A.03,
 Gaussian 16:  ES64L-G16RevA.03 25-Dec-2016

 ------------------------------------------
 #p M062X/6-31G* em=gd3 force int=ultrafine
 ------------------------------------------

 -----
 Title
 -----
 Symbolic Z-matrix:
 Charge =  0 Multiplicity = 1

                         Standard orientation:
 ---------------------------------------------------------------------
 Center     Atomic      Atomic             Coordinates (Angstroms)
 Number     Number       Type             X           Y           Z
 ---------------------------------------------------------------------
      1          6           0       -4.818394    0.465840   -0.523991
      2          6           0       -5.019361   -0.847234   -1.286646
      3          6           0       -3.698555   -1.331657   -1.896740
      4          6           0       -2.678194   -1.511880   -0.778464
      5          6           0       -2.436693   -0.176970   -0.029785
      6          6           0       -3.753308    0.329394    0.569094
      7          1           0       -3.830966   -2.271717   -2.442843
      8          1           0       -5.404975   -1.615600   -0.603726
      9          1           0       -5.764611   -0.720186   -2.078127
     10          1           0       -4.507872    1.246635   -1.231021
     11          1           0       -5.765433    0.790962   -0.081165
     12          1           0       -3.052697   -2.250100   -0.062454
     13          1           0       -2.117396    0.556430   -0.781268
     14          1           0       -4.097498   -0.364146    1.343346
     15          1           0       -3.562136    1.299678    1.040176
     16          1           0       -3.350797   -0.573577   -2.611430
     17          7           0       -1.361265   -2.011836   -1.225143
     18          6           0       -0.681161   -1.356094   -2.203653
     19          6           0       -0.662218   -2.795909   -0.361961
     20          6           0        0.672196   -1.427555   -2.320711
     21          1           0       -1.276169   -0.739685   -2.866062
     22          6           0        0.692977   -2.904820   -0.405791
     23          1           0       -1.246253   -3.276335    0.415537
     24          6           0        1.432765   -2.121155   -1.332061
     25          1           0        1.158310   -0.877172   -3.114988
     26          1           0        1.182355   -3.488519    0.360814
     27          7           0        2.757079   -2.042140   -1.278995
     28          6           0        3.499431   -2.509296   -0.098335
     29          1           0        3.369869   -3.586542    0.037951
     30          1           0        3.123611   -1.961465    0.778193
     31          6           0        3.493951   -0.983797   -1.986374
     32          1           0        3.735450   -1.311954   -3.004966
     33          1           0        2.876093   -0.082249   -2.011785
     34          7           0       -1.315308   -0.248141    0.895031
     35         16           0       -1.343671   -1.070056    2.307369
     36          8           0       -2.572420   -1.868361    2.337692
     37          8           0       -0.068631   -1.771023    2.472176
     38          6           0       -0.547839    2.654979   -0.060093
     39          6           0       -0.074344    2.112973   -1.265260
     40          6           0       -0.845083    2.179307   -2.424934
     41          6           0       -2.104356    2.779051   -2.415055
     42          6           0       -2.586653    3.317956   -1.225066
     43          6           0       -1.810982    3.254958   -0.067194
     44          1           0        0.875769    1.588666   -1.257047
     45          1           0       -0.451026    1.763702   -3.350365
     46          1           0       -2.698012    2.833006   -3.323493
     47          1           0       -3.563823    3.792267   -1.196772
     48          1           0       -2.196812    3.686823    0.854237
     49          8           0        0.739358    1.530911    1.815980
     50          1           0       -0.348879   -0.014999    0.570051
     51          6           0        1.916803    0.808720    1.214867
     52          8           0        1.557214    0.194349    0.113342
     53          8           0        2.267613   -0.063508    2.273587
     54          1           0        1.570374   -0.743293    2.279348
     55          6           0        3.100757    1.804757    1.134711
     56          1           0        3.008634    2.521867    1.960906
     57          1           0        4.006508    1.224049    1.350723
     58          6           0        0.273340    2.715279    1.232678
     59          1           0       -0.374962    3.176069    1.990108
     60          1           0        1.102934    3.421661    1.077722
     61          6           0       -1.416122    0.172081    3.576497
     62          1           0       -0.527556    0.795116    3.440258
     63          1           0       -2.334888    0.745243    3.440930
     64          1           0       -1.413837   -0.340632    4.539864
     65          6           0        3.294762    2.542195   -0.187688
     66          1           0        3.481966    1.814069   -0.985981
     67          1           0        2.383961    3.072078   -0.486001
     68          6           0        4.450055    3.538971   -0.105152
     69          1           0        4.616840    4.052487   -1.057032
     70          1           0        4.247609    4.301155    0.655744
     71          1           0        5.382291    3.036688    0.177417
     72          6           0        4.935861   -2.117195   -0.423731
     73          1           0        5.551989   -2.045115    0.474238
     74          1           0        5.386396   -2.852520   -1.099735
     75          6           0        4.744681   -0.773163   -1.128782
     76          1           0        4.522734   -0.007435   -0.380655
     77          1           0        5.607135   -0.457048   -1.719292
 ---------------------------------------------------------------------

 SCF Done:  E(RM062X) =  -1991.35754641     A.U. after   14 cycles

 The electronic state is 1-A.
 Alpha  occ. eigenvalues --  -90.14422 -19.62002 -19.61950 -19.58535 -19.56635
 Alpha  occ. eigenvalues --  -19.50915 -14.85256 -14.80371 -14.76288 -10.63393
 Alpha  occ. eigenvalues --  -10.62785 -10.62259 -10.62068 -10.60881 -10.59567
 Alpha  occ. eigenvalues --  -10.58258 -10.57982 -10.57933 -10.57185 -10.56886
 Alpha  occ. eigenvalues --  -10.56783 -10.55752 -10.55741 -10.55023 -10.54920
 Alpha  occ. eigenvalues --  -10.54880 -10.54772 -10.54644 -10.54621 -10.54457
 Alpha  occ. eigenvalues --  -10.54424 -10.54349 -10.53002 -10.51335 -10.51296
 Alpha  occ. eigenvalues --  -10.49539  -8.45397  -6.37618  -6.37588  -6.37432
 Alpha  occ. eigenvalues --   -1.22230  -1.13626  -1.13302  -1.10481  -1.09273
 Alpha  occ. eigenvalues --   -1.05770  -1.02031  -0.99200  -0.95831  -0.95008
 Alpha  occ. eigenvalues --   -0.93550  -0.90324  -0.88756  -0.86104  -0.85592
 Alpha  occ. eigenvalues --   -0.84835  -0.84766  -0.84120  -0.83069  -0.82844
 Alpha  occ. eigenvalues --   -0.76697  -0.76115  -0.75799  -0.74264  -0.72961
 Alpha  occ. eigenvalues --   -0.71742  -0.68309  -0.68168  -0.67922  -0.67338
 Alpha  occ. eigenvalues --   -0.66670  -0.65307  -0.64841  -0.63529  -0.60513
 Alpha  occ. eigenvalues --   -0.60388  -0.59714  -0.59332  -0.57764  -0.57678
 Alpha  occ. eigenvalues --   -0.57260  -0.56473  -0.55818  -0.55148  -0.54242
 Alpha  occ. eigenvalues --   -0.53602  -0.52758  -0.52566  -0.52500  -0.51934
 Alpha  occ. eigenvalues --   -0.51579  -0.50948  -0.50542  -0.49921  -0.49444
 Alpha  occ. eigenvalues --   -0.49142  -0.48923  -0.48216  -0.48125  -0.47899
 Alpha  occ. eigenvalues --   -0.47750  -0.47523  -0.47001  -0.46341  -0.46067
 Alpha  occ. eigenvalues --   -0.44973  -0.44731  -0.44227  -0.43822  -0.43278
 Alpha  occ. eigenvalues --   -0.42583  -0.42178  -0.41294  -0.41213  -0.41012
 Alpha  occ. eigenvalues --   -0.40866  -0.40547  -0.39983  -0.39765  -0.39243
 Alpha  occ. eigenvalues --   -0.39213  -0.39102  -0.38403  -0.38111  -0.37710
 Alpha  occ. eigenvalues --   -0.37339  -0.36702  -0.36481  -0.35882  -0.34940
 Alpha  occ. eigenvalues --   -0.34411  -0.34071  -0.31733  -0.31211  -0.29792
 Alpha  occ. eigenvalues --   -0.28865  -0.28598  -0.27709  -0.24485  -0.24161
 Alpha virt. eigenvalues --   -0.01491   0.00379   0.03504   0.03723   0.10117
 Alpha virt. eigenvalues --    0.10830   0.11549   0.12318   0.13144   0.13390
 Alpha virt. eigenvalues --    0.14217   0.14402   0.14742   0.15270   0.15588

 Mulliken charges:
               1
     1  C   -0.306329
     2  C   -0.307368
     3  C   -0.309427
     4  C   -0.059682
     5  C    0.055533
     6  C   -0.310463
     7  H    0.174564
     8  H    0.163055
     9  H    0.166065
    10  H    0.150654
    11  H    0.164193
    12  H    0.208312
    13  H    0.174332
    14  H    0.194733
    15  H    0.163405
    16  H    0.155085
    17  N   -0.432632
    18  C    0.068881
    19  C    0.065869
    20  C   -0.202246
    21  H    0.205797
    22  C   -0.210579
    23  H    0.244092
    24  C    0.446982
    25  H    0.192427
    26  H    0.211218
    27  N   -0.524348
    28  C   -0.169290
    29  H    0.169180
    30  H    0.226601
    31  C   -0.152998
    32  H    0.163746
    33  H    0.206939
    34  N   -0.809429
    35  S    1.249808
    36  O   -0.608390
    37  O   -0.602117
    38  C    0.077329
    39  C   -0.188758
    40  C   -0.190648
    41  C   -0.172287
    42  C   -0.164210
    43  C   -0.210760
    44  H    0.218458
    45  H    0.140247
    46  H    0.154956
    47  H    0.158520
    48  H    0.152276
    49  O   -0.557299
    50  H    0.444841
    51  C    0.720738
    52  O   -0.718377
    53  O   -0.716102
    54  H    0.440609
    55  C   -0.338008
    56  H    0.147225
    57  H    0.150631
    58  C   -0.087356
    59  H    0.137509
    60  H    0.148719
    61  C   -0.663985
    62  H    0.276584
    63  H    0.197110
    64  H    0.218505
    65  C   -0.289818
    66  H    0.133889
    67  H    0.145000
    68  C   -0.473456
    69  H    0.148420
    70  H    0.152777
    71  H    0.146800
    72  C   -0.332581
    73  H    0.186479
    74  H    0.162224
    75  C   -0.342056
    76  H    0.199638
    77  H    0.170046
 Sum of Mulliken charges =  -0.00000

 Dipole moment (field-independent basis, Debye):
    X=             -2.9201    Y=             -2.1302    Z=             -6.1797  Tot=              7.1591
 Quadrupole moment (field-independent basis, Debye-Ang):
   XX=           -206.6262   YY=           -221.8941   ZZ=           -220.1499
   XY=            -12.7341   XZ=             -4.7891   YZ=             10.2298

 Normal termination of Gaussian 16 at Thu Feb  7 12:59:53 2019.
