 Gaussian 16, Revision A.03,
 Gaussian 16:  ES64L-G16RevA.03 25-Dec-2016

 ------------------------------------------
 #p M062X/6-31G* em=gd3 force int=ultrafine
 ------------------------------------------

 -----
 Title
 -----
 Symbolic Z-matrix:
 Charge =  0 Multiplicity = 1

                         Standard orientation:
 ---------------------------------------------------------------------
 Center     Atomic      Atomic             Coordinates (Angstroms)
 Number     Number       Type             X           Y           Z
 ---------------------------------------------------------------------
      1          6           0       -4.790529    0.453399   -0.516219
      2          6           0       -4.996808   -0.845513   -1.301242
      3          6           0       -3.679577   -1.320745   -1.926741
      4          6           0       -2.656180   -1.522520   -0.815296
      5          6           0       -2.406811   -0.200852   -0.044120
      6          6           0       -3.720284    0.296832    0.568898
      7          1           0       -3.816683   -2.250841   -2.488561
      8          1           0       -5.379417   -1.625622   -0.630044
      9          1           0       -5.746254   -0.703413   -2.086152
     10          1           0       -4.482398    1.245977   -1.210755
     11          1           0       -5.734848    0.772025   -0.062963
     12          1           0       -3.031059   -2.271168   -0.110678
     13          1           0       -2.088863    0.544572   -0.784279
     14          1           0       -4.061820   -0.410145    1.332316
     15          1           0       -3.525934    1.258576    1.055628
     16          1           0       -3.333733   -0.550781   -2.629615
     17          7           0       -1.340625   -2.018208   -1.271264
     18          6           0       -0.658563   -1.342670   -2.234670
     19          6           0       -0.641660   -2.810418   -0.415169
     20          6           0        0.696442   -1.399559   -2.340658
     21          1           0       -1.253934   -0.722437   -2.893361
     22          6           0        0.715025   -2.904919   -0.447499
     23          1           0       -1.228186   -3.308430    0.349366
     24          6           0        1.454340   -2.096706   -1.352284
     25          1           0        1.184075   -0.833850   -3.123025
     26          1           0        1.203423   -3.495684    0.314339
     27          7           0        2.776645   -1.997653   -1.281070
     28          6           0        3.513790   -2.458790   -0.094819
     29          1           0        3.393117   -3.537150    0.040063
     30          1           0        3.126033   -1.915581    0.779523
     31          6           0        3.504069   -0.926018   -1.976415
     32          1           0        3.744761   -1.239070   -2.999823
     33          1           0        2.876844   -0.030636   -1.992143
     34          7           0       -1.282157   -0.294745    0.873956
     35         16           0       -1.325514   -1.132742    2.273188
     36          8           0       -2.538121   -1.956895    2.275391
     37          8           0       -0.040034   -1.811661    2.454112
     38          6           0       -0.578085    2.676747   -0.002223
     39          6           0       -0.106066    2.169057   -1.223021
     40          6           0       -0.885039    2.251746   -2.375753
     41          6           0       -2.152632    2.833272   -2.343258
     42          6           0       -2.634559    3.336293   -1.137899
     43          6           0       -1.849478    3.258180    0.012761
     44          1           0        0.849952    1.657169   -1.236161
     45          1           0       -0.491584    1.863897   -3.313259
     46          1           0       -2.753378    2.900150   -3.246143
     47          1           0       -3.618626    3.794721   -1.091447
     48          1           0       -2.234347    3.664236    0.946279
     49          8           0        0.721298    1.543964    1.862246
     50          1           0       -0.306456   -0.053816    0.555415
     51          6           0        1.874868    0.817472    1.237751
     52          8           0        1.487640    0.206697    0.139233
     53          8           0        2.247752   -0.061391    2.283263
     54          1           0        1.554249   -0.745783    2.297148
     55          6           0        3.068372    1.800957    1.132249
     56          1           0        3.001968    2.516731    1.961168
     57          1           0        3.969132    1.207280    1.330824
     58          6           0        0.254516    2.730383    1.283094
     59          1           0       -0.383745    3.193258    2.047271
     60          1           0        1.086104    3.432480    1.121067
     61          6           0       -1.448301    0.090390    3.557087
     62          1           0       -0.571007    0.733904    3.446813
     63          1           0       -2.375268    0.647054    3.408659
     64          1           0       -1.456475   -0.433529    4.514319
     65          6           0        3.250050    2.538203   -0.191593
     66          1           0        3.359742    1.806920   -1.001257
     67          1           0        2.361471    3.124977   -0.447860
     68          6           0        4.466278    3.462679   -0.154098
     69          1           0        4.616837    3.977840   -1.107817
     70          1           0        4.348697    4.225636    0.624398
     71          1           0        5.379253    2.900463    0.075734
     72          6           0        4.949372   -2.055735   -0.411243
     73          1           0        5.559202   -1.978083    0.490580
     74          1           0        5.409310   -2.789109   -1.082885
     75          6           0        4.756425   -0.713737   -1.120765
     76          1           0        4.540693    0.056585   -0.375826
     77          1           0        5.618213   -0.401503   -1.714293
 ---------------------------------------------------------------------

 SCF Done:  E(RM062X) =  -1991.35818327     A.U. after   14 cycles

 The electronic state is 1-A.
 Alpha  occ. eigenvalues --  -90.14257 -19.61855 -19.61823 -19.58626 -19.56673
 Alpha  occ. eigenvalues --  -19.51148 -14.85198 -14.80430 -14.75935 -10.63419
 Alpha  occ. eigenvalues --  -10.62789 -10.62230 -10.62182 -10.60776 -10.59426
 Alpha  occ. eigenvalues --  -10.58373 -10.58003 -10.57968 -10.57181 -10.56892
 Alpha  occ. eigenvalues --  -10.56719 -10.55688 -10.55638 -10.55092 -10.54858
 Alpha  occ. eigenvalues --  -10.54832 -10.54771 -10.54744 -10.54593 -10.54414
 Alpha  occ. eigenvalues --  -10.54368 -10.54337 -10.53055 -10.51458 -10.51415
 Alpha  occ. eigenvalues --  -10.49627  -8.45234  -6.37452  -6.37427  -6.37269
 Alpha  occ. eigenvalues --   -1.22077  -1.13598  -1.13439  -1.10331  -1.09332
 Alpha  occ. eigenvalues --   -1.05837  -1.01835  -0.99277  -0.95777  -0.95001
 Alpha  occ. eigenvalues --   -0.93517  -0.90315  -0.88760  -0.85966  -0.85715
 Alpha  occ. eigenvalues --   -0.84829  -0.84733  -0.84199  -0.83065  -0.82743
 Alpha  occ. eigenvalues --   -0.76679  -0.76225  -0.75826  -0.74331  -0.72845
 Alpha  occ. eigenvalues --   -0.71684  -0.68327  -0.68208  -0.67940  -0.67250
 Alpha  occ. eigenvalues --   -0.66726  -0.65251  -0.64862  -0.63532  -0.60539
 Alpha  occ. eigenvalues --   -0.60403  -0.59766  -0.59129  -0.57800  -0.57622
 Alpha  occ. eigenvalues --   -0.57205  -0.56450  -0.55804  -0.55166  -0.54213
 Alpha  occ. eigenvalues --   -0.53576  -0.52680  -0.52497  -0.52477  -0.51910
 Alpha  occ. eigenvalues --   -0.51559  -0.50997  -0.50670  -0.49894  -0.49514
 Alpha  occ. eigenvalues --   -0.49164  -0.48861  -0.48209  -0.48139  -0.47973
 Alpha  occ. eigenvalues --   -0.47700  -0.47483  -0.46935  -0.46409  -0.46101
 Alpha  occ. eigenvalues --   -0.44899  -0.44741  -0.44172  -0.43853  -0.43269
 Alpha  occ. eigenvalues --   -0.42543  -0.42159  -0.41370  -0.41279  -0.41079
 Alpha  occ. eigenvalues --   -0.40904  -0.40507  -0.39991  -0.39786  -0.39268
 Alpha  occ. eigenvalues --   -0.39245  -0.39085  -0.38429  -0.38010  -0.37624
 Alpha  occ. eigenvalues --   -0.37384  -0.36747  -0.36541  -0.35787  -0.34920
 Alpha  occ. eigenvalues --   -0.34395  -0.34005  -0.31671  -0.31151  -0.29781
 Alpha  occ. eigenvalues --   -0.28869  -0.28608  -0.27671  -0.24734  -0.24330
 Alpha virt. eigenvalues --   -0.01528   0.00389   0.03532   0.03738   0.10127
 Alpha virt. eigenvalues --    0.10944   0.11632   0.12248   0.13155   0.13473
 Alpha virt. eigenvalues --    0.14224   0.14530   0.14753   0.15223   0.15598

 Mulliken charges:
               1
     1  C   -0.306298
     2  C   -0.307218
     3  C   -0.309143
     4  C   -0.060330
     5  C    0.056207
     6  C   -0.311183
     7  H    0.174170
     8  H    0.162939
     9  H    0.165669
    10  H    0.150893
    11  H    0.163601
    12  H    0.209102
    13  H    0.173405
    14  H    0.193525
    15  H    0.163541
    16  H    0.154463
    17  N   -0.430877
    18  C    0.067403
    19  C    0.064326
    20  C   -0.201451
    21  H    0.206232
    22  C   -0.209560
    23  H    0.244847
    24  C    0.445910
    25  H    0.192243
    26  H    0.211443
    27  N   -0.525544
    28  C   -0.170270
    29  H    0.169687
    30  H    0.228350
    31  C   -0.154627
    32  H    0.164929
    33  H    0.206830
    34  N   -0.814284
    35  S    1.252355
    36  O   -0.611060
    37  O   -0.605166
    38  C    0.082749
    39  C   -0.185815
    40  C   -0.189989
    41  C   -0.171559
    42  C   -0.163789
    43  C   -0.211873
    44  H    0.213763
    45  H    0.140442
    46  H    0.154952
    47  H    0.158600
    48  H    0.152442
    49  O   -0.552352
    50  H    0.447760
    51  C    0.723137
    52  O   -0.720772
    53  O   -0.717753
    54  H    0.443621
    55  C   -0.338333
    56  H    0.148423
    57  H    0.151236
    58  C   -0.090110
    59  H    0.139268
    60  H    0.147983
    61  C   -0.663434
    62  H    0.274667
    63  H    0.196452
    64  H    0.217777
    65  C   -0.291515
    66  H    0.134259
    67  H    0.145980
    68  C   -0.473132
    69  H    0.148779
    70  H    0.153799
    71  H    0.145608
    72  C   -0.332013
    73  H    0.186860
    74  H    0.162777
    75  C   -0.342885
    76  H    0.198066
    77  H    0.170862
 Sum of Mulliken charges =  -0.00000

 Dipole moment (field-independent basis, Debye):
    X=             -2.6784    Y=             -1.9945    Z=             -6.3039  Tot=              7.1338
 Quadrupole moment (field-independent basis, Debye-Ang):
   XX=           -206.0244   YY=           -222.4639   ZZ=           -220.0627
   XY=            -12.5238   XZ=             -5.1650   YZ=             10.0951

 Normal termination of Gaussian 16 at Thu Feb  7 14:05:16 2019.
