 Gaussian 16, Revision A.03,
 Gaussian 16:  ES64L-G16RevA.03 25-Dec-2016

 ------------------------------------------
 #p M062X/6-31G* em=gd3 force int=ultrafine
 ------------------------------------------

 -----
 Title
 -----
 Symbolic Z-matrix:
 Charge =  0 Multiplicity = 1

                         Standard orientation:
 ---------------------------------------------------------------------
 Center     Atomic      Atomic             Coordinates (Angstroms)
 Number     Number       Type             X           Y           Z
 ---------------------------------------------------------------------
      1          6           0       -4.782258    0.427297   -0.531562
      2          6           0       -4.975642   -0.860369   -1.338102
      3          6           0       -3.651577   -1.318287   -1.962299
      4          6           0       -2.635098   -1.531353   -0.846715
      5          6           0       -2.396110   -0.218226   -0.057019
      6          6           0       -3.716162    0.261826    0.556232
      7          1           0       -3.779880   -2.240129   -2.539626
      8          1           0       -5.357929   -1.653213   -0.681809
      9          1           0       -5.720833   -0.710102   -2.125518
     10          1           0       -4.476399    1.232778   -1.211928
     11          1           0       -5.730999    0.732132   -0.078013
     12          1           0       -3.012528   -2.290010   -0.154284
     13          1           0       -2.079767    0.538544   -0.786285
     14          1           0       -4.056558   -0.458819    1.307429
     15          1           0       -3.531100    1.217648    1.057924
     16          1           0       -3.305399   -0.535217   -2.650421
     17          7           0       -1.314697   -2.017300   -1.298795
     18          6           0       -0.630691   -1.334486   -2.255268
     19          6           0       -0.616547   -2.809188   -0.441418
     20          6           0        0.725427   -1.383405   -2.352928
     21          1           0       -1.225474   -0.716088   -2.916270
     22          6           0        0.740986   -2.892508   -0.462877
     23          1           0       -1.205629   -3.316205    0.315191
     24          6           0        1.480745   -2.075220   -1.358882
     25          1           0        1.214196   -0.813896   -3.131712
     26          1           0        1.228063   -3.482860    0.300145
     27          7           0        2.801593   -1.963956   -1.274726
     28          6           0        3.531031   -2.407333   -0.076588
     29          1           0        3.419466   -3.485541    0.066884
     30          1           0        3.128710   -1.860515    0.788970
     31          6           0        3.526625   -0.894867   -1.974827
     32          1           0        3.774228   -1.215200   -2.994280
     33          1           0        2.893960   -0.003701   -2.005173
     34          7           0       -1.275198   -0.317446    0.864442
     35         16           0       -1.326165   -1.167879    2.254062
     36          8           0       -2.525772   -2.011152    2.235875
     37          8           0       -0.032871   -1.829267    2.446803
     38          6           0       -0.605315    2.689435    0.038952
     39          6           0       -0.132435    2.206383   -1.191420
     40          6           0       -0.916440    2.298700   -2.339846
     41          6           0       -2.190016    2.866332   -2.293248
     42          6           0       -2.673137    3.344146   -1.078321
     43          6           0       -1.882871    3.256149    0.068098
     44          1           0        0.828551    1.705281   -1.217536
     45          1           0       -0.522665    1.929991   -3.284788
     46          1           0       -2.794858    2.941467   -3.192763
     47          1           0       -3.662055    3.790866   -1.020856
     48          1           0       -2.268208    3.643427    1.009429
     49          8           0        0.702286    1.547324    1.892020
     50          1           0       -0.293524   -0.068211    0.552430
     51          6           0        1.845869    0.824643    1.253199
     52          8           0        1.446415    0.217242    0.154915
     53          8           0        2.232552   -0.058811    2.290066
     54          1           0        1.539427   -0.743503    2.311328
     55          6           0        3.043691    1.803427    1.135037
     56          1           0        2.993600    2.518874    1.965887
     57          1           0        3.940920    1.200168    1.322807
     58          6           0        0.234109    2.736677    1.319487
     59          1           0       -0.398095    3.198084    2.089374
     60          1           0        1.066588    3.436764    1.154547
     61          6           0       -1.483867    0.041384    3.547434
     62          1           0       -0.617433    0.701661    3.451457
     63          1           0       -2.419155    0.582702    3.394508
     64          1           0       -1.492173   -0.490427    4.500288
     65          6           0        3.218952    2.538281   -0.190865
     66          1           0        3.238376    1.805236   -1.006731
     67          1           0        2.363818    3.186957   -0.404924
     68          6           0        4.498197    3.373432   -0.206444
     69          1           0        4.633925    3.892934   -1.160056
     70          1           0        4.477589    4.127880    0.586715
     71          1           0        5.379100    2.742450   -0.035633
     72          6           0        4.966598   -1.995402   -0.382380
     73          1           0        5.564292   -1.898449    0.525726
     74          1           0        5.441560   -2.734946   -1.036441
     75          6           0        4.773711   -0.665764   -1.115564
     76          1           0        4.555312    0.118180   -0.386007
     77          1           0        5.638203   -0.362900   -1.710048
 ---------------------------------------------------------------------

 SCF Done:  E(RM062X) =  -1991.35858020     A.U. after   14 cycles

 The electronic state is 1-A.
 Alpha  occ. eigenvalues --  -90.14167 -19.61774 -19.61751 -19.58693 -19.56703
 Alpha  occ. eigenvalues --  -19.51273 -14.85167 -14.80449 -14.75733 -10.63419
 Alpha  occ. eigenvalues --  -10.62787 -10.62258 -10.62185 -10.60724 -10.59340
 Alpha  occ. eigenvalues --  -10.58474 -10.57996 -10.57941 -10.57154 -10.56890
 Alpha  occ. eigenvalues --  -10.56689 -10.55656 -10.55600 -10.55116 -10.54847
 Alpha  occ. eigenvalues --  -10.54836 -10.54784 -10.54720 -10.54569 -10.54395
 Alpha  occ. eigenvalues --  -10.54318 -10.54316 -10.53076 -10.51530 -10.51468
 Alpha  occ. eigenvalues --  -10.49707  -8.45144  -6.37360  -6.37338  -6.37181
 Alpha  occ. eigenvalues --   -1.21991  -1.13594  -1.13498  -1.10246  -1.09346
 Alpha  occ. eigenvalues --   -1.05878  -1.01729  -0.99332  -0.95741  -0.94987
 Alpha  occ. eigenvalues --   -0.93491  -0.90298  -0.88753  -0.85900  -0.85786
 Alpha  occ. eigenvalues --   -0.84822  -0.84705  -0.84241  -0.83054  -0.82689
 Alpha  occ. eigenvalues --   -0.76665  -0.76285  -0.75833  -0.74371  -0.72786
 Alpha  occ. eigenvalues --   -0.71641  -0.68327  -0.68234  -0.67939  -0.67201
 Alpha  occ. eigenvalues --   -0.66749  -0.65228  -0.64867  -0.63525  -0.60560
 Alpha  occ. eigenvalues --   -0.60403  -0.59783  -0.59007  -0.57805  -0.57591
 Alpha  occ. eigenvalues --   -0.57174  -0.56437  -0.55779  -0.55169  -0.54192
 Alpha  occ. eigenvalues --   -0.53541  -0.52654  -0.52451  -0.52426  -0.51904
 Alpha  occ. eigenvalues --   -0.51549  -0.51029  -0.50777  -0.49874  -0.49563
 Alpha  occ. eigenvalues --   -0.49159  -0.48832  -0.48206  -0.48136  -0.48024
 Alpha  occ. eigenvalues --   -0.47668  -0.47461  -0.46910  -0.46439  -0.46103
 Alpha  occ. eigenvalues --   -0.44883  -0.44734  -0.44138  -0.43871  -0.43260
 Alpha  occ. eigenvalues --   -0.42506  -0.42132  -0.41413  -0.41335  -0.41123
 Alpha  occ. eigenvalues --   -0.40900  -0.40477  -0.39995  -0.39819  -0.39329
 Alpha  occ. eigenvalues --   -0.39258  -0.39067  -0.38445  -0.37950  -0.37593
 Alpha  occ. eigenvalues --   -0.37387  -0.36736  -0.36566  -0.35732  -0.34901
 Alpha  occ. eigenvalues --   -0.34385  -0.33957  -0.31676  -0.31087  -0.29769
 Alpha  occ. eigenvalues --   -0.28882  -0.28600  -0.27641  -0.24867  -0.24426
 Alpha virt. eigenvalues --   -0.01517   0.00409   0.03557   0.03760   0.10142
 Alpha virt. eigenvalues --    0.11002   0.11651   0.12185   0.13179   0.13517
 Alpha virt. eigenvalues --    0.14209   0.14612   0.14761   0.15235   0.15600

 Mulliken charges:
               1
     1  C   -0.306257
     2  C   -0.307098
     3  C   -0.309349
     4  C   -0.060082
     5  C    0.056845
     6  C   -0.311611
     7  H    0.173941
     8  H    0.162803
     9  H    0.165465
    10  H    0.151074
    11  H    0.163277
    12  H    0.208936
    13  H    0.172975
    14  H    0.193012
    15  H    0.163610
    16  H    0.154191
    17  N   -0.430627
    18  C    0.067583
    19  C    0.063632
    20  C   -0.202124
    21  H    0.206550
    22  C   -0.209053
    23  H    0.245404
    24  C    0.446197
    25  H    0.191904
    26  H    0.211582
    27  N   -0.526336
    28  C   -0.171435
    29  H    0.169767
    30  H    0.230456
    31  C   -0.154665
    32  H    0.166074
    33  H    0.204945
    34  N   -0.816038
    35  S    1.253570
    36  O   -0.612175
    37  O   -0.606863
    38  C    0.085503
    39  C   -0.183383
    40  C   -0.189631
    41  C   -0.171058
    42  C   -0.163692
    43  C   -0.212178
    44  H    0.210164
    45  H    0.140655
    46  H    0.154885
    47  H    0.158587
    48  H    0.152484
    49  O   -0.550168
    50  H    0.448841
    51  C    0.725183
    52  O   -0.722437
    53  O   -0.718077
    54  H    0.444971
    55  C   -0.338483
    56  H    0.149028
    57  H    0.150892
    58  C   -0.091868
    59  H    0.140201
    60  H    0.147643
    61  C   -0.663230
    62  H    0.273138
    63  H    0.196266
    64  H    0.217530
    65  C   -0.293548
    66  H    0.136663
    67  H    0.146604
    68  C   -0.473408
    69  H    0.149046
    70  H    0.155030
    71  H    0.144457
    72  C   -0.331864
    73  H    0.187277
    74  H    0.163029
    75  C   -0.343335
    76  H    0.197049
    77  H    0.171155
 Sum of Mulliken charges =  -0.00000

 Dipole moment (field-independent basis, Debye):
    X=             -2.5123    Y=             -1.8937    Z=             -6.3734  Tot=              7.1076
 Quadrupole moment (field-independent basis, Debye-Ang):
   XX=           -205.6342   YY=           -222.9084   ZZ=           -219.8445
   XY=            -12.3206   XZ=             -5.3529   YZ=             10.0216

 Normal termination of Gaussian 16 at Thu Feb  7 15:07:44 2019.
