 Gaussian 16, Revision A.03,
 Gaussian 16:  ES64L-G16RevA.03 25-Dec-2016

 ------------------------------------------
 #p M062X/6-31G* em=gd3 force int=ultrafine
 ------------------------------------------

 -----
 Title
 -----
 Symbolic Z-matrix:
 Charge =  0 Multiplicity = 1

                         Standard orientation:
 ---------------------------------------------------------------------
 Center     Atomic      Atomic             Coordinates (Angstroms)
 Number     Number       Type             X           Y           Z
 ---------------------------------------------------------------------
      1          6           0       -4.860395    0.309678   -0.479865
      2          6           0       -4.982125   -0.971131   -1.310763
      3          6           0       -3.623604   -1.370533   -1.900630
      4          6           0       -2.627159   -1.562397   -0.761695
      5          6           0       -2.460907   -0.258392    0.068239
      6          6           0       -3.824896    0.156102    0.638194
      7          1           0       -3.704170   -2.283236   -2.501938
      8          1           0       -5.354455   -1.786135   -0.676443
      9          1           0       -5.707712   -0.838204   -2.120023
     10          1           0       -4.551002    1.133309   -1.138972
     11          1           0       -5.836123    0.582263   -0.063760
     12          1           0       -2.976825   -2.359294   -0.097839
     13          1           0       -2.186493    0.514228   -0.666547
     14          1           0       -4.156637   -0.587482    1.373169
     15          1           0       -3.686915    1.109399    1.162570
     16          1           0       -3.291625   -0.559548   -2.563494
     17          7           0       -1.274273   -1.976867   -1.206630
     18          6           0       -0.629837   -1.299200   -2.185688
     19          6           0       -0.544241   -2.743096   -0.361436
     20          6           0        0.725629   -1.353979   -2.342100
     21          1           0       -1.247866   -0.682875   -2.825764
     22          6           0        0.814948   -2.846167   -0.453282
     23          1           0       -1.099712   -3.234505    0.430216
     24          6           0        1.520532   -2.072118   -1.405463
     25          1           0        1.180097   -0.788524   -3.145135
     26          1           0        1.326261   -3.432060    0.297516
     27          7           0        2.859912   -2.003778   -1.403449
     28          6           0        3.625513   -2.498329   -0.250721
     29          1           0        3.542679   -3.585389   -0.166152
     30          1           0        3.231982   -2.036437    0.665590
     31          6           0        3.586097   -0.933752   -2.107975
     32          1           0        3.854652   -1.262207   -3.119045
     33          1           0        2.961985   -0.038186   -2.165129
     34          7           0       -1.341381   -0.310853    0.977299
     35         16           0       -1.345547   -1.204006    2.283341
     36          8           0       -2.434711   -2.203354    2.317404
     37          8           0        0.023150   -1.750534    2.487862
     38          6           0       -0.832461    2.800917   -0.099883
     39          6           0       -0.227110    2.137742   -1.175421
     40          6           0       -0.855671    2.118664   -2.419257
     41          6           0       -2.103196    2.719149   -2.596707
     42          6           0       -2.720023    3.350336   -1.519673
     43          6           0       -2.080917    3.390493   -0.283516
     44          1           0        0.712282    1.608648   -1.023121
     45          1           0       -0.371219    1.628228   -3.261244
     46          1           0       -2.592909    2.695325   -3.565638
     47          1           0       -3.696435    3.810608   -1.635565
     48          1           0       -2.557967    3.876357    0.564077
     49          8           0        0.298059    1.622039    1.692789
     50          1           0       -0.305405    0.896682    1.315366
     51          6           0        2.434690    0.576451    1.164266
     52          8           0        2.094771    0.169183    0.069683
     53          8           0        2.280728   -0.120379    2.285137
     54          1           0        1.544777   -0.779129    2.180431
     55          6           0        3.160253    1.885965    1.375100
     56          1           0        2.619338    2.423402    2.161078
     57          1           0        4.155963    1.662230    1.781138
     58          6           0       -0.180635    2.857663    1.264767
     59          1           0       -0.902748    3.278422    1.982642
     60          1           0        0.677892    3.546285    1.240743
     61          6           0       -1.564197   -0.078922    3.661601
     62          1           0       -0.771413    0.667625    3.571067
     63          1           0       -2.545581    0.392204    3.578698
     64          1           0       -1.474203   -0.633930    4.596175
     65          6           0        3.274199    2.725297    0.104908
     66          1           0        3.667298    2.105926   -0.709922
     67          1           0        2.275440    3.039415   -0.220032
     68          6           0        4.163809    3.949565    0.306116
     69          1           0        4.278207    4.518395   -0.621210
     70          1           0        3.746530    4.622604    1.062604
     71          1           0        5.162986    3.652775    0.643059
     72          6           0        5.048403   -2.030221   -0.540796
     73          1           0        5.643524   -1.946241    0.370807
     74          1           0        5.546321   -2.733075   -1.216390
     75          6           0        4.821845   -0.686504   -1.236799
     76          1           0        4.580193    0.076298   -0.491617
     77          1           0        5.680740   -0.344921   -1.818075
 ---------------------------------------------------------------------

 SCF Done:  E(RM062X) =  -1991.38165825     A.U. after   15 cycles

 The electronic state is 1-A.
 Alpha  occ. eigenvalues --  -90.10220 -19.63657 -19.60238 -19.58621 -19.58286
 Alpha  occ. eigenvalues --  -19.58277 -14.84803 -14.80419 -14.69266 -10.65868
 Alpha  occ. eigenvalues --  -10.63220 -10.62444 -10.61633 -10.59266 -10.59065
 Alpha  occ. eigenvalues --  -10.58882 -10.57834 -10.57325 -10.56774 -10.56723
 Alpha  occ. eigenvalues --  -10.55929 -10.55690 -10.55636 -10.55104 -10.55034
 Alpha  occ. eigenvalues --  -10.54945 -10.54658 -10.54616 -10.54520 -10.54002
 Alpha  occ. eigenvalues --  -10.53602 -10.53578 -10.53537 -10.53287 -10.52939
 Alpha  occ. eigenvalues --  -10.52622  -8.41171  -6.33408  -6.33318  -6.33239
 Alpha  occ. eigenvalues --   -1.19346  -1.17672  -1.12928  -1.10129  -1.10017
 Alpha  occ. eigenvalues --   -1.09061  -1.05973  -0.97560  -0.95384  -0.94737
 Alpha  occ. eigenvalues --   -0.92194  -0.89818  -0.88565  -0.88399  -0.85110
 Alpha  occ. eigenvalues --   -0.84813  -0.83727  -0.83559  -0.83276  -0.79991
 Alpha  occ. eigenvalues --   -0.79445  -0.76311  -0.75607  -0.74649  -0.70955
 Alpha  occ. eigenvalues --   -0.70291  -0.69385  -0.68657  -0.68350  -0.68117
 Alpha  occ. eigenvalues --   -0.66019  -0.64766  -0.63917  -0.63530  -0.61608
 Alpha  occ. eigenvalues --   -0.60288  -0.59377  -0.59129  -0.58362  -0.56171
 Alpha  occ. eigenvalues --   -0.55753  -0.55330  -0.55174  -0.54508  -0.53922
 Alpha  occ. eigenvalues --   -0.53477  -0.53054  -0.52651  -0.51825  -0.51637
 Alpha  occ. eigenvalues --   -0.51063  -0.50943  -0.50628  -0.50001  -0.49842
 Alpha  occ. eigenvalues --   -0.49754  -0.49520  -0.48765  -0.48314  -0.48046
 Alpha  occ. eigenvalues --   -0.47717  -0.47259  -0.47095  -0.47001  -0.45792
 Alpha  occ. eigenvalues --   -0.45508  -0.45157  -0.43978  -0.43739  -0.43489
 Alpha  occ. eigenvalues --   -0.43074  -0.42840  -0.42142  -0.42015  -0.41807
 Alpha  occ. eigenvalues --   -0.41237  -0.40934  -0.40516  -0.39895  -0.39667
 Alpha  occ. eigenvalues --   -0.39414  -0.39370  -0.39145  -0.38400  -0.38114
 Alpha  occ. eigenvalues --   -0.37422  -0.36302  -0.35834  -0.35328  -0.35170
 Alpha  occ. eigenvalues --   -0.34217  -0.32957  -0.31959  -0.31700  -0.31189
 Alpha  occ. eigenvalues --   -0.29985  -0.28770  -0.28343  -0.27287  -0.25346
 Alpha virt. eigenvalues --   -0.01081   0.00683   0.03096   0.03666   0.08789
 Alpha virt. eigenvalues --    0.10150   0.10972   0.11773   0.12968   0.13484
 Alpha virt. eigenvalues --    0.13753   0.14315   0.14998   0.15441   0.15868

 Mulliken charges:
               1
     1  C   -0.303837
     2  C   -0.304473
     3  C   -0.309859
     4  C   -0.070865
     5  C    0.069510
     6  C   -0.304798
     7  H    0.167168
     8  H    0.161574
     9  H    0.159336
    10  H    0.144666
    11  H    0.157199
    12  H    0.208485
    13  H    0.140086
    14  H    0.182259
    15  H    0.150064
    16  H    0.149807
    17  N   -0.424459
    18  C    0.097001
    19  C    0.093374
    20  C   -0.226423
    21  H    0.204488
    22  C   -0.227788
    23  H    0.258392
    24  C    0.426160
    25  H    0.187395
    26  H    0.207937
    27  N   -0.526062
    28  C   -0.159295
    29  H    0.178106
    30  H    0.197894
    31  C   -0.145361
    32  H    0.169538
    33  H    0.193677
    34  N   -0.772453
    35  S    1.244868
    36  O   -0.636505
    37  O   -0.667574
    38  C    0.052352
    39  C   -0.176840
    40  C   -0.188836
    41  C   -0.169532
    42  C   -0.160362
    43  C   -0.199953
    44  H    0.203729
    45  H    0.139987
    46  H    0.157368
    47  H    0.162565
    48  H    0.158851
    49  O   -0.717940
    50  H    0.486490
    51  C    0.666892
    52  O   -0.519835
    53  O   -0.646799
    54  H    0.481733
    55  C   -0.375264
    56  H    0.202082
    57  H    0.167690
    58  C   -0.062860
    59  H    0.126175
    60  H    0.142409
    61  C   -0.665356
    62  H    0.232242
    63  H    0.184711
    64  H    0.205373
    65  C   -0.291446
    66  H    0.147334
    67  H    0.162364
    68  C   -0.480652
    69  H    0.160015
    70  H    0.158949
    71  H    0.152251
    72  C   -0.335723
    73  H    0.184221
    74  H    0.169500
    75  C   -0.335436
    76  H    0.179690
    77  H    0.172630
 Sum of Mulliken charges =  -0.00000

 Dipole moment (field-independent basis, Debye):
    X=              1.7009    Y=              0.1811    Z=             -6.7881  Tot=              7.0003
 Quadrupole moment (field-independent basis, Debye-Ang):
   XX=           -200.3898   YY=           -222.5054   ZZ=           -222.9686
   XY=            -11.6041   XZ=              1.1318   YZ=             13.2011

 Normal termination of Gaussian 16 at Thu Feb  7 21:34:12 2019.
