 Gaussian 16, Revision A.03,
 Gaussian 16:  ES64L-G16RevA.03 25-Dec-2016

 ------------------------------------------
 #p M062X/6-31G* em=gd3 force int=ultrafine
 ------------------------------------------

 -----
 Title
 -----
 Symbolic Z-matrix:
 Charge =  0 Multiplicity = 1

                         Standard orientation:
 ---------------------------------------------------------------------
 Center     Atomic      Atomic             Coordinates (Angstroms)
 Number     Number       Type             X           Y           Z
 ---------------------------------------------------------------------
      1          6           0       -4.850202    0.542957   -0.524624
      2          6           0       -5.027623   -0.729159   -1.358625
      3          6           0       -3.688056   -1.185209   -1.949605
      4          6           0       -2.700025   -1.433954   -0.814224
      5          6           0       -2.493562   -0.146924    0.020806
      6          6           0       -3.827524    0.338690    0.596131
      7          1           0       -3.804962   -2.091235   -2.553619
      8          1           0       -5.437125   -1.529104   -0.727899
      9          1           0       -5.745523   -0.560169   -2.167244
     10          1           0       -4.504874    1.355910   -1.178006
     11          1           0       -5.810952    0.854818   -0.102656
     12          1           0       -3.092831   -2.216982   -0.157488
     13          1           0       -2.134299    0.623932   -0.673476
     14          1           0       -4.199771   -0.391131    1.323372
     15          1           0       -3.642994    1.281310    1.124201
     16          1           0       -3.316413   -0.387645   -2.606914
     17          7           0       -1.370994   -1.906887   -1.257429
     18          6           0       -0.684844   -1.237867   -2.221764
     19          6           0       -0.677973   -2.724207   -0.421093
     20          6           0        0.665857   -1.334729   -2.356214
     21          1           0       -1.271878   -0.594757   -2.864607
     22          6           0        0.674375   -2.861004   -0.483362
     23          1           0       -1.264544   -3.223819    0.342085
     24          6           0        1.425198   -2.080174   -1.405079
     25          1           0        1.153941   -0.774166   -3.142403
     26          1           0        1.156861   -3.482653    0.257515
     27          7           0        2.752906   -2.057117   -1.381766
     28          6           0        3.491616   -2.585629   -0.224139
     29          1           0        3.343955   -3.665408   -0.131328
     30          1           0        3.127384   -2.067774    0.674313
     31          6           0        3.526560   -1.010702   -2.072567
     32          1           0        3.779351   -1.343141   -3.087177
     33          1           0        2.938812   -0.090700   -2.101322
     34          7           0       -1.410703   -0.292701    0.976740
     35         16           0       -1.439540   -1.190771    2.336394
     36          8           0       -2.667889   -1.987878    2.304494
     37          8           0       -0.163677   -1.894506    2.470757
     38          6           0       -0.536471    2.687747   -0.061021
     39          6           0       -0.033200    2.071502   -1.214438
     40          6           0       -0.735709    2.157299   -2.415939
     41          6           0       -1.955798    2.829970   -2.484699
     42          6           0       -2.469311    3.430059   -1.336352
     43          6           0       -1.759319    3.360187   -0.138038
     44          1           0        0.884916    1.488832   -1.128109
     45          1           0       -0.323039    1.695851   -3.311070
     46          1           0       -2.498239    2.892845   -3.423966
     47          1           0       -3.419878    3.954917   -1.374059
     48          1           0       -2.165111    3.832748    0.754302
     49          8           0        0.651550    1.351866    1.642950
     50          1           0       -0.542331    0.272816    0.903403
     51          6           0        2.053768    0.726512    1.193895
     52          8           0        1.937113    0.177580    0.039471
     53          8           0        2.243619   -0.158299    2.273493
     54          1           0        1.563630   -0.848071    2.166172
     55          6           0        3.112451    1.832735    1.353970
     56          1           0        2.852168    2.487069    2.195325
     57          1           0        4.040197    1.322910    1.645183
     58          6           0        0.220080    2.626540    1.260862
     59          1           0       -0.457233    2.996064    2.047202
     60          1           0        1.058538    3.337492    1.229560
     61          6           0       -1.492115   -0.005926    3.662502
     62          1           0       -0.611289    0.629133    3.524322
     63          1           0       -2.418762    0.564288    3.581755
     64          1           0       -1.445771   -0.551829    4.606045
     65          6           0        3.370342    2.639046    0.083321
     66          1           0        3.712997    1.956181   -0.702428
     67          1           0        2.439603    3.073567   -0.300297
     68          6           0        4.395869    3.747593    0.307800
     69          1           0        4.601224    4.304043   -0.611945
     70          1           0        4.040184    4.461779    1.059013
     71          1           0        5.343628    3.335702    0.672091
     72          6           0        4.934782   -2.201814   -0.528971
     73          1           0        5.545277   -2.168563    0.375301
     74          1           0        5.381432   -2.919904   -1.225952
     75          6           0        4.763443   -0.833325   -1.189608
     76          1           0        4.518829   -0.093591   -0.422094
     77          1           0        5.637685   -0.503674   -1.755073
 ---------------------------------------------------------------------

 SCF Done:  E(RM062X) =  -1991.35551157     A.U. after   15 cycles

 The electronic state is 1-A.
 Alpha  occ. eigenvalues --  -90.14684 -19.62345 -19.62027 -19.58513 -19.57185
 Alpha  occ. eigenvalues --  -19.50851 -14.85170 -14.80052 -14.76347 -10.63158
 Alpha  occ. eigenvalues --  -10.62603 -10.62342 -10.62118 -10.61065 -10.59832
 Alpha  occ. eigenvalues --  -10.57784 -10.57755 -10.57671 -10.57026 -10.56968
 Alpha  occ. eigenvalues --  -10.56867 -10.56381 -10.55858 -10.55122 -10.55069
 Alpha  occ. eigenvalues --  -10.55044 -10.54889 -10.54690 -10.54681 -10.54678
 Alpha  occ. eigenvalues --  -10.54444 -10.54062 -10.53122 -10.51110 -10.51005
 Alpha  occ. eigenvalues --  -10.49631  -8.45659  -6.37885  -6.37834  -6.37710
 Alpha  occ. eigenvalues --   -1.22483  -1.13440  -1.12813  -1.10683  -1.08884
 Alpha  occ. eigenvalues --   -1.06013  -1.02351  -1.00297  -0.95812  -0.95213
 Alpha  occ. eigenvalues --   -0.93467  -0.90109  -0.88568  -0.86508  -0.85400
 Alpha  occ. eigenvalues --   -0.84897  -0.84845  -0.83729  -0.83317  -0.83033
 Alpha  occ. eigenvalues --   -0.76561  -0.76035  -0.75553  -0.74178  -0.73228
 Alpha  occ. eigenvalues --   -0.71742  -0.68231  -0.68125  -0.67748  -0.67478
 Alpha  occ. eigenvalues --   -0.66413  -0.65480  -0.64882  -0.63327  -0.60522
 Alpha  occ. eigenvalues --   -0.60375  -0.59944  -0.59395  -0.57952  -0.57683
 Alpha  occ. eigenvalues --   -0.57151  -0.56373  -0.55635  -0.55055  -0.54379
 Alpha  occ. eigenvalues --   -0.53548  -0.53047  -0.52650  -0.52438  -0.52165
 Alpha  occ. eigenvalues --   -0.51667  -0.50825  -0.50126  -0.49930  -0.49376
 Alpha  occ. eigenvalues --   -0.49243  -0.48911  -0.48512  -0.48201  -0.48031
 Alpha  occ. eigenvalues --   -0.47701  -0.47647  -0.47154  -0.46219  -0.45839
 Alpha  occ. eigenvalues --   -0.45362  -0.45178  -0.44391  -0.44082  -0.43184
 Alpha  occ. eigenvalues --   -0.42463  -0.42336  -0.41207  -0.40881  -0.40753
 Alpha  occ. eigenvalues --   -0.40653  -0.40400  -0.40154  -0.39845  -0.39430
 Alpha  occ. eigenvalues --   -0.39100  -0.38930  -0.38724  -0.38291  -0.37739
 Alpha  occ. eigenvalues --   -0.37457  -0.36524  -0.36437  -0.36025  -0.35033
 Alpha  occ. eigenvalues --   -0.34570  -0.34301  -0.31887  -0.31264  -0.30016
 Alpha  occ. eigenvalues --   -0.29278  -0.28806  -0.27786  -0.24461  -0.24100
 Alpha virt. eigenvalues --   -0.01235   0.00583   0.03207   0.03592   0.10172
 Alpha virt. eigenvalues --    0.10595   0.11361   0.12561   0.13163   0.13330
 Alpha virt. eigenvalues --    0.14159   0.14411   0.15073   0.15532   0.15539

 Mulliken charges:
               1
     1  C   -0.306574
     2  C   -0.307789
     3  C   -0.311489
     4  C   -0.060703
     5  C    0.065740
     6  C   -0.306834
     7  H    0.175384
     8  H    0.163241
     9  H    0.166729
    10  H    0.151716
    11  H    0.164830
    12  H    0.207690
    13  H    0.174201
    14  H    0.192050
    15  H    0.160294
    16  H    0.156623
    17  N   -0.437271
    18  C    0.080692
    19  C    0.081286
    20  C   -0.211213
    21  H    0.202801
    22  C   -0.221492
    23  H    0.244023
    24  C    0.448783
    25  H    0.192066
    26  H    0.209710
    27  N   -0.518355
    28  C   -0.164171
    29  H    0.167264
    30  H    0.220033
    31  C   -0.145120
    32  H    0.160453
    33  H    0.205428
    34  N   -0.813115
    35  S    1.237350
    36  O   -0.604152
    37  O   -0.591802
    38  C    0.049183
    39  C   -0.197552
    40  C   -0.192740
    41  C   -0.172554
    42  C   -0.165160
    43  C   -0.205369
    44  H    0.235613
    45  H    0.141182
    46  H    0.156275
    47  H    0.159897
    48  H    0.154421
    49  O   -0.604577
    50  H    0.451653
    51  C    0.714457
    52  O   -0.683598
    53  O   -0.700507
    54  H    0.432804
    55  C   -0.339643
    56  H    0.144264
    57  H    0.151002
    58  C   -0.078713
    59  H    0.129826
    60  H    0.156250
    61  C   -0.666361
    62  H    0.266166
    63  H    0.200366
    64  H    0.223211
    65  C   -0.285108
    66  H    0.143083
    67  H    0.140710
    68  C   -0.475213
    69  H    0.148460
    70  H    0.149022
    71  H    0.148823
    72  C   -0.334220
    73  H    0.184199
    74  H    0.160151
    75  C   -0.338591
    76  H    0.205862
    77  H    0.164720
 Sum of Mulliken charges =  -0.00000

 Dipole moment (field-independent basis, Debye):
    X=             -3.5132    Y=             -1.4597    Z=             -5.7227  Tot=              6.8718
 Quadrupole moment (field-independent basis, Debye-Ang):
   XX=           -208.3766   YY=           -222.7871   ZZ=           -218.0794
   XY=            -13.5654   XZ=             -4.2881   YZ=             10.7899

 Normal termination of Gaussian 16 at Thu Feb  7 09:20:30 2019.
