 Gaussian 16, Revision A.03,
 Gaussian 16:  ES64L-G16RevA.03 25-Dec-2016

 ------------------------------------------
 #p M062X/6-31G* em=gd3 force int=ultrafine
 ------------------------------------------

 -----
 Title
 -----
 Symbolic Z-matrix:
 Charge =  0 Multiplicity = 1

                         Standard orientation:
 ---------------------------------------------------------------------
 Center     Atomic      Atomic             Coordinates (Angstroms)
 Number     Number       Type             X           Y           Z
 ---------------------------------------------------------------------
      1          6           0       -4.856100    0.482965   -0.546185
      2          6           0       -5.037599   -0.829990   -1.313807
      3          6           0       -3.704057   -1.308215   -1.900381
      4          6           0       -2.699624   -1.486932   -0.766782
      5          6           0       -2.483524   -0.152709   -0.011466
      6          6           0       -3.811734    0.346314    0.566167
      7          1           0       -3.822675   -2.247065   -2.451611
      8          1           0       -5.433105   -1.600272   -0.638773
      9          1           0       -5.768251   -0.705067   -2.119077
     10          1           0       -4.532775    1.265936   -1.245437
     11          1           0       -5.812437    0.805305   -0.121864
     12          1           0       -3.079970   -2.230951   -0.059489
     13          1           0       -2.154407    0.584243   -0.755237
     14          1           0       -4.165980   -0.350601    1.332935
     15          1           0       -3.631197    1.315611    1.043861
     16          1           0       -3.347258   -0.546359   -2.606461
     17          7           0       -1.374764   -1.978767   -1.198736
     18          6           0       -0.692708   -1.338723   -2.186334
     19          6           0       -0.678688   -2.762388   -0.332783
     20          6           0        0.658773   -1.428873   -2.313134
     21          1           0       -1.284143   -0.721989   -2.851178
     22          6           0        0.674588   -2.888119   -0.385463
     23          1           0       -1.263202   -3.233335    0.449987
     24          6           0        1.419459   -2.128124   -1.328429
     25          1           0        1.145350   -0.891584   -3.116153
     26          1           0        1.161570   -3.473917    0.381081
     27          7           0        2.745519   -2.079695   -1.292893
     28          6           0        3.485883   -2.554865   -0.113399
     29          1           0        3.346905   -3.631169    0.022172
     30          1           0        3.116023   -2.002965    0.762775
     31          6           0        3.502518   -1.042900   -2.013173
     32          1           0        3.754797   -1.396515   -3.020734
     33          1           0        2.899066   -0.133317   -2.063079
     34          7           0       -1.379218   -0.214009    0.932919
     35         16           0       -1.387723   -1.046886    2.340963
     36          8           0       -2.624677   -1.830684    2.376427
     37          8           0       -0.116538   -1.757491    2.483278
     38          6           0       -0.526459    2.643800   -0.092058
     39          6           0       -0.052189    2.064618   -1.278438
     40          6           0       -0.809044    2.128889   -2.448070
     41          6           0       -2.052318    2.760507   -2.463520
     42          6           0       -2.534311    3.335595   -1.289663
     43          6           0       -1.773893    3.275813   -0.121834
     44          1           0        0.887010    1.518085   -1.242256
     45          1           0       -0.416591    1.685910   -3.361515
     46          1           0       -2.634604    2.811726   -3.379446
     47          1           0       -3.499491    3.834657   -1.282928
     48          1           0       -2.158778    3.733281    0.787541
     49          8           0        0.739139    1.467261    1.746674
     50          1           0       -0.432509    0.081922    0.643023
     51          6           0        1.984930    0.788225    1.186246
     52          8           0        1.705941    0.188495    0.063010
     53          8           0        2.295251   -0.089133    2.254656
     54          1           0        1.588992   -0.759854    2.237033
     55          6           0        3.134143    1.824282    1.180740
     56          1           0        2.984349    2.531915    2.006619
     57          1           0        4.048818    1.270315    1.427910
     58          6           0        0.280240    2.675687    1.208860
     59          1           0       -0.376587    3.112622    1.974250
     60          1           0        1.110428    3.386847    1.083784
     61          6           0       -1.423501    0.192756    3.613778
     62          1           0       -0.533051    0.808627    3.456178
     63          1           0       -2.342315    0.770970    3.504056
     64          1           0       -1.396812   -0.321405    4.576095
     65          6           0        3.352494    2.570375   -0.133302
     66          1           0        3.588121    1.845892   -0.921860
     67          1           0        2.433917    3.068219   -0.463972
     68          6           0        4.471633    3.603740   -0.014166
     69          1           0        4.653780    4.120745   -0.961426
     70          1           0        4.221771    4.360975    0.737603
     71          1           0        5.409458    3.131350    0.299360
     72          6           0        4.925645   -2.172643   -0.435140
     73          1           0        5.538363   -2.102815    0.465409
     74          1           0        5.375300   -2.911203   -1.108411
     75          6           0        4.741973   -0.828876   -1.141615
     76          1           0        4.501762   -0.065511   -0.396192
     77          1           0        5.611069   -0.510615   -1.721276
 ---------------------------------------------------------------------

 SCF Done:  E(RM062X) =  -1991.35648722     A.U. after   15 cycles

 The electronic state is 1-A.
 Alpha  occ. eigenvalues --  -90.14722 -19.62295 -19.62163 -19.58475 -19.56658
 Alpha  occ. eigenvalues --  -19.50567 -14.85294 -14.80220 -14.76753 -10.63299
 Alpha  occ. eigenvalues --  -10.62740 -10.62238 -10.61961 -10.61049 -10.59804
 Alpha  occ. eigenvalues --  -10.58019 -10.57898 -10.57758 -10.57125 -10.56902
 Alpha  occ. eigenvalues --  -10.56889 -10.56058 -10.55861 -10.55056 -10.54957
 Alpha  occ. eigenvalues --  -10.54864 -10.54826 -10.54707 -10.54633 -10.54491
 Alpha  occ. eigenvalues --  -10.54388 -10.54352 -10.52961 -10.51156 -10.51083
 Alpha  occ. eigenvalues --  -10.49426  -8.45694  -6.37919  -6.37880  -6.37729
 Alpha  occ. eigenvalues --   -1.22509  -1.13608  -1.13025  -1.10751  -1.09097
 Alpha  occ. eigenvalues --   -1.05688  -1.02407  -0.99236  -0.95891  -0.95061
 Alpha  occ. eigenvalues --   -0.93561  -0.90273  -0.88696  -0.86386  -0.85374
 Alpha  occ. eigenvalues --   -0.84888  -0.84818  -0.83915  -0.83129  -0.83034
 Alpha  occ. eigenvalues --   -0.76677  -0.75942  -0.75703  -0.74213  -0.73189
 Alpha  occ. eigenvalues --   -0.71805  -0.68248  -0.68149  -0.67844  -0.67492
 Alpha  occ. eigenvalues --   -0.66526  -0.65447  -0.64796  -0.63476  -0.60497
 Alpha  occ. eigenvalues --   -0.60316  -0.59784  -0.59561  -0.57808  -0.57686
 Alpha  occ. eigenvalues --   -0.57287  -0.56492  -0.55816  -0.55126  -0.54310
 Alpha  occ. eigenvalues --   -0.53614  -0.52983  -0.52665  -0.52462  -0.52011
 Alpha  occ. eigenvalues --   -0.51656  -0.50864  -0.50323  -0.49930  -0.49354
 Alpha  occ. eigenvalues --   -0.49148  -0.48994  -0.48316  -0.48124  -0.47888
 Alpha  occ. eigenvalues --   -0.47751  -0.47588  -0.47130  -0.46210  -0.45931
 Alpha  occ. eigenvalues --   -0.45117  -0.44844  -0.44310  -0.43821  -0.43270
 Alpha  occ. eigenvalues --   -0.42581  -0.42229  -0.41146  -0.41073  -0.40921
 Alpha  occ. eigenvalues --   -0.40717  -0.40525  -0.39963  -0.39833  -0.39319
 Alpha  occ. eigenvalues --   -0.39205  -0.39018  -0.38431  -0.38299  -0.37851
 Alpha  occ. eigenvalues --   -0.37283  -0.36576  -0.36408  -0.36051  -0.34973
 Alpha  occ. eigenvalues --   -0.34447  -0.34186  -0.31869  -0.31235  -0.29856
 Alpha  occ. eigenvalues --   -0.28947  -0.28662  -0.27750  -0.24099  -0.23945
 Alpha virt. eigenvalues --   -0.01382   0.00425   0.03391   0.03678   0.10124
 Alpha virt. eigenvalues --    0.10653   0.11391   0.12468   0.13181   0.13253
 Alpha virt. eigenvalues --    0.14124   0.14372   0.14788   0.15393   0.15566

 Mulliken charges:
               1
     1  C   -0.306414
     2  C   -0.307670
     3  C   -0.310380
     4  C   -0.058712
     5  C    0.057194
     6  C   -0.308996
     7  H    0.175274
     8  H    0.163125
     9  H    0.166721
    10  H    0.151005
    11  H    0.164951
    12  H    0.206995
    13  H    0.175743
    14  H    0.194678
    15  H    0.163325
    16  H    0.156014
    17  N   -0.436180
    18  C    0.072862
    19  C    0.069850
    20  C   -0.204917
    21  H    0.204763
    22  C   -0.213953
    23  H    0.243355
    24  C    0.448912
    25  H    0.192516
    26  H    0.210697
    27  N   -0.521325
    28  C   -0.168239
    29  H    0.167795
    30  H    0.225104
    31  C   -0.149363
    32  H    0.161962
    33  H    0.206043
    34  N   -0.800073
    35  S    1.245652
    36  O   -0.604582
    37  O   -0.595829
    38  C    0.064966
    39  C   -0.194531
    40  C   -0.191415
    41  C   -0.172621
    42  C   -0.165141
    43  C   -0.207889
    44  H    0.226175
    45  H    0.140590
    46  H    0.155278
    47  H    0.158784
    48  H    0.152643
    49  O   -0.571236
    50  H    0.439110
    51  C    0.718985
    52  O   -0.711864
    53  O   -0.711262
    54  H    0.434914
    55  C   -0.339222
    56  H    0.144974
    57  H    0.149937
    58  C   -0.083985
    59  H    0.134592
    60  H    0.151617
    61  C   -0.664675
    62  H    0.275312
    63  H    0.199018
    64  H    0.220505
    65  C   -0.286964
    66  H    0.137174
    67  H    0.142455
    68  C   -0.474052
    69  H    0.147908
    70  H    0.151040
    71  H    0.147508
    72  C   -0.333391
    73  H    0.185807
    74  H    0.160876
    75  C   -0.340351
    76  H    0.202762
    77  H    0.167763
 Sum of Mulliken charges =  -0.00000

 Dipole moment (field-independent basis, Debye):
    X=             -3.3920    Y=             -2.0870    Z=             -5.9282  Tot=              7.1417
 Quadrupole moment (field-independent basis, Debye-Ang):
   XX=           -207.7597   YY=           -221.6930   ZZ=           -219.4514
   XY=            -13.0355   XZ=             -4.4105   YZ=             10.4325

 Normal termination of Gaussian 16 at Thu Feb  7 11:45:52 2019.
