 Gaussian 16, Revision A.03,
 Gaussian 16:  ES64L-G16RevA.03 25-Dec-2016

 ------------------------------------------
 #p M062X/6-31G* em=gd3 force int=ultrafine
 ------------------------------------------

 -----
 Title
 -----
 Symbolic Z-matrix:
 Charge =  0 Multiplicity = 1

                         Standard orientation:
 ---------------------------------------------------------------------
 Center     Atomic      Atomic             Coordinates (Angstroms)
 Number     Number       Type             X           Y           Z
 ---------------------------------------------------------------------
      1          6           0       -4.870133    0.108392   -0.434144
      2          6           0       -4.925897   -1.181711   -1.257907
      3          6           0       -3.549217   -1.514138   -1.845986
      4          6           0       -2.543001   -1.637372   -0.706273
      5          6           0       -2.432882   -0.308936    0.095747
      6          6           0       -3.816482    0.023820    0.674437
      7          1           0       -3.581281   -2.440573   -2.430916
      8          1           0       -5.255590   -2.012058   -0.619739
      9          1           0       -5.657717   -1.090474   -2.067343
     10          1           0       -4.615743    0.945103   -1.100011
     11          1           0       -5.856160    0.324909   -0.009404
     12          1           0       -2.861284   -2.431133   -0.024975
     13          1           0       -2.213858    0.465403   -0.654690
     14          1           0       -4.094387   -0.740864    1.410964
     15          1           0       -3.737310    0.983489    1.199232
     16          1           0       -3.261852   -0.697786   -2.522906
     17          7           0       -1.180894   -2.016372   -1.148843
     18          6           0       -0.565037   -1.342123   -2.147053
     19          6           0       -0.429567   -2.765773   -0.307951
     20          6           0        0.788614   -1.376246   -2.322159
     21          1           0       -1.205383   -0.749883   -2.787979
     22          6           0        0.929414   -2.844550   -0.416204
     23          1           0       -0.967591   -3.256416    0.496053
     24          6           0        1.606428   -2.066340   -1.384961
     25          1           0        1.222831   -0.820008   -3.142436
     26          1           0        1.462770   -3.415697    0.330662
     27          7           0        2.943103   -1.972254   -1.399584
     28          6           0        3.735654   -2.457672   -0.262812
     29          1           0        3.680422   -3.547765   -0.189170
     30          1           0        3.341140   -2.016077    0.663106
     31          6           0        3.640100   -0.900258   -2.126337
     32          1           0        3.900871   -1.236735   -3.137228
     33          1           0        2.998204   -0.017372   -2.186043
     34          7           0       -1.306190   -0.272071    1.004569
     35         16           0       -1.269621   -1.201458    2.280884
     36          8           0       -2.271440   -2.290830    2.265775
     37          8           0        0.127155   -1.658965    2.517059
     38          6           0       -1.073717    2.860893   -0.166967
     39          6           0       -0.374282    2.178215   -1.168501
     40          6           0       -0.925802    2.058512   -2.442157
     41          6           0       -2.190347    2.577732   -2.722087
     42          6           0       -2.900968    3.230618   -1.717435
     43          6           0       -2.339193    3.372849   -0.450609
     44          1           0        0.577526    1.706593   -0.930002
     45          1           0       -0.365864    1.550182   -3.223966
     46          1           0       -2.620055    2.475129   -3.714156
     47          1           0       -3.892001    3.627957   -1.916365
     48          1           0       -2.894018    3.878848    0.336461
     49          8           0        0.238992    1.896699    1.632876
     50          1           0       -0.286041    1.090798    1.349805
     51          6           0        2.439435    0.644895    1.208117
     52          8           0        2.111434    0.207941    0.118487
     53          8           0        2.223549    0.011134    2.349385
     54          1           0        1.517438   -0.684105    2.240054
     55          6           0        3.193176    1.940835    1.395137
     56          1           0        2.704333    2.475514    2.214935
     57          1           0        4.210114    1.699161    1.735529
     58          6           0       -0.475286    3.023216    1.214643
     59          1           0       -1.278628    3.287482    1.922227
     60          1           0        0.230720    3.866786    1.210424
     61          6           0       -1.631175   -0.158453    3.690572
     62          1           0       -0.919690    0.670428    3.663258
     63          1           0       -2.654561    0.208336    3.590239
     64          1           0       -1.516056   -0.743863    4.603754
     65          6           0        3.225706    2.786076    0.128223
     66          1           0        3.651984    2.199103   -0.694399
     67          1           0        2.194700    3.012802   -0.165865
     68          6           0        4.013378    4.079420    0.313184
     69          1           0        4.037956    4.665564   -0.610045
     70          1           0        3.565211    4.702494    1.094259
     71          1           0        5.048188    3.872923    0.607603
     72          6           0        5.143899   -1.954192   -0.567233
     73          1           0        5.741811   -1.846960    0.340025
     74          1           0        5.657015   -2.650378   -1.238470
     75          6           0        4.880580   -0.621685   -1.272800
     76          1           0        4.629972    0.143776   -0.532951
     77          1           0        5.725766   -0.270406   -1.868230
 ---------------------------------------------------------------------

 SCF Done:  E(RM062X) =  -1991.38847518     A.U. after   15 cycles

 The electronic state is 1-A.
 Alpha  occ. eigenvalues --  -90.10337 -19.63384 -19.60093 -19.59192 -19.58543
 Alpha  occ. eigenvalues --  -19.58333 -14.84795 -14.80490 -14.69363 -10.65493
 Alpha  occ. eigenvalues --  -10.63222 -10.62404 -10.61502 -10.59129 -10.59066
 Alpha  occ. eigenvalues --  -10.59041 -10.57822 -10.57418 -10.56806 -10.56658
 Alpha  occ. eigenvalues --  -10.56023 -10.55741 -10.55533 -10.54981 -10.54923
 Alpha  occ. eigenvalues --  -10.54873 -10.54598 -10.54558 -10.54501 -10.53800
 Alpha  occ. eigenvalues --  -10.53658 -10.53564 -10.53204 -10.53137 -10.52645
 Alpha  occ. eigenvalues --  -10.52619  -8.41300  -6.33538  -6.33446  -6.33365
 Alpha  occ. eigenvalues --   -1.19132  -1.17856  -1.12932  -1.10264  -1.09861
 Alpha  occ. eigenvalues --   -1.09129  -1.06123  -0.97530  -0.95273  -0.94786
 Alpha  occ. eigenvalues --   -0.92183  -0.89845  -0.88574  -0.88114  -0.85026
 Alpha  occ. eigenvalues --   -0.84933  -0.83655  -0.83506  -0.83300  -0.80164
 Alpha  occ. eigenvalues --   -0.79185  -0.76342  -0.75648  -0.74683  -0.70936
 Alpha  occ. eigenvalues --   -0.70198  -0.69127  -0.68706  -0.68353  -0.68023
 Alpha  occ. eigenvalues --   -0.65839  -0.64728  -0.63934  -0.63430  -0.61610
 Alpha  occ. eigenvalues --   -0.60261  -0.59384  -0.59004  -0.58350  -0.56163
 Alpha  occ. eigenvalues --   -0.55456  -0.55174  -0.55073  -0.54126  -0.53708
 Alpha  occ. eigenvalues --   -0.53442  -0.53067  -0.52446  -0.51950  -0.51707
 Alpha  occ. eigenvalues --   -0.51122  -0.50982  -0.50610  -0.50126  -0.49830
 Alpha  occ. eigenvalues --   -0.49589  -0.49515  -0.48817  -0.48341  -0.47992
 Alpha  occ. eigenvalues --   -0.47797  -0.47175  -0.46991  -0.46980  -0.45916
 Alpha  occ. eigenvalues --   -0.45773  -0.45234  -0.43946  -0.43651  -0.43427
 Alpha  occ. eigenvalues --   -0.42778  -0.42534  -0.42222  -0.41968  -0.41888
 Alpha  occ. eigenvalues --   -0.41159  -0.40869  -0.40552  -0.39904  -0.39542
 Alpha  occ. eigenvalues --   -0.39361  -0.39226  -0.38823  -0.38385  -0.37908
 Alpha  occ. eigenvalues --   -0.37312  -0.36216  -0.35844  -0.35346  -0.35123
 Alpha  occ. eigenvalues --   -0.34368  -0.33091  -0.32056  -0.31696  -0.31497
 Alpha  occ. eigenvalues --   -0.29868  -0.28880  -0.28317  -0.27435  -0.25386
 Alpha virt. eigenvalues --   -0.01026   0.00657   0.03260   0.03778   0.09050
 Alpha virt. eigenvalues --    0.10161   0.10905   0.11811   0.12976   0.13521
 Alpha virt. eigenvalues --    0.13870   0.14268   0.15051   0.15484   0.15786

 Mulliken charges:
               1
     1  C   -0.303909
     2  C   -0.304180
     3  C   -0.309624
     4  C   -0.073259
     5  C    0.063080
     6  C   -0.305069
     7  H    0.166152
     8  H    0.160961
     9  H    0.159124
    10  H    0.146056
    11  H    0.156718
    12  H    0.212524
    13  H    0.141393
    14  H    0.179329
    15  H    0.149728
    16  H    0.150391
    17  N   -0.424204
    18  C    0.099618
    19  C    0.083975
    20  C   -0.227633
    21  H    0.204876
    22  C   -0.226684
    23  H    0.264050
    24  C    0.428031
    25  H    0.188076
    26  H    0.207178
    27  N   -0.528541
    28  C   -0.157917
    29  H    0.178356
    30  H    0.199162
    31  C   -0.146810
    32  H    0.169572
    33  H    0.195429
    34  N   -0.756391
    35  S    1.249472
    36  O   -0.646237
    37  O   -0.670256
    38  C    0.048653
    39  C   -0.176842
    40  C   -0.187303
    41  C   -0.169786
    42  C   -0.161823
    43  C   -0.198316
    44  H    0.204120
    45  H    0.139152
    46  H    0.156450
    47  H    0.161909
    48  H    0.157175
    49  O   -0.713418
    50  H    0.482340
    51  C    0.650128
    52  O   -0.522592
    53  O   -0.646001
    54  H    0.485641
    55  C   -0.368746
    56  H    0.201372
    57  H    0.164385
    58  C   -0.065783
    59  H    0.127957
    60  H    0.155266
    61  C   -0.657678
    62  H    0.220792
    63  H    0.187685
    64  H    0.207562
    65  C   -0.287555
    66  H    0.144136
    67  H    0.164529
    68  C   -0.480337
    69  H    0.158698
    70  H    0.158443
    71  H    0.150693
    72  C   -0.337209
    73  H    0.184265
    74  H    0.169995
    75  C   -0.335829
    76  H    0.182168
    77  H    0.173167
 Sum of Mulliken charges =  -0.00000

 Dipole moment (field-independent basis, Debye):
    X=              1.5430    Y=             -0.3484    Z=             -6.5603  Tot=              6.7483
 Quadrupole moment (field-independent basis, Debye-Ang):
   XX=           -198.4662   YY=           -222.8479   ZZ=           -222.1290
   XY=            -11.8753   XZ=             -0.8614   YZ=             12.4768

 Normal termination of Gaussian 16 at Thu Feb  7 23:57:38 2019.
