 Gaussian 16, Revision A.03,
 Gaussian 16:  ES64L-G16RevA.03 25-Dec-2016

 ------------------------------------------
 #p M062X/6-31G* em=gd3 force int=ultrafine
 ------------------------------------------

 -----
 Title
 -----
 Symbolic Z-matrix:
 Charge =  0 Multiplicity = 1

                         Standard orientation:
 ---------------------------------------------------------------------
 Center     Atomic      Atomic             Coordinates (Angstroms)
 Number     Number       Type             X           Y           Z
 ---------------------------------------------------------------------
      1          6           0       -4.781785    0.382238   -0.585034
      2          6           0       -4.947652   -0.906518   -1.395923
      3          6           0       -3.608822   -1.347407   -2.000382
      4          6           0       -2.607004   -1.550421   -0.869747
      5          6           0       -2.394186   -0.234624   -0.076493
      6          6           0       -3.729319    0.228437    0.517534
      7          1           0       -3.717123   -2.269270   -2.581839
      8          1           0       -5.330330   -1.704877   -0.746615
      9          1           0       -5.682433   -0.763943   -2.194504
     10          1           0       -4.476704    1.192515   -1.259935
     11          1           0       -5.740609    0.674343   -0.144450
     12          1           0       -2.987061   -2.312918   -0.182883
     13          1           0       -2.076207    0.525739   -0.801370
     14          1           0       -4.071809   -0.497499    1.262554
     15          1           0       -3.563777    1.185624    1.023261
     16          1           0       -3.261771   -0.558319   -2.681156
     17          7           0       -1.275718   -2.023676   -1.302546
     18          6           0       -0.590620   -1.348827   -2.263256
     19          6           0       -0.577528   -2.798340   -0.429245
     20          6           0        0.766613   -1.389557   -2.351625
     21          1           0       -1.185417   -0.745751   -2.938152
     22          6           0        0.780750   -2.868110   -0.437779
     23          1           0       -1.168520   -3.303215    0.327251
     24          6           0        1.520000   -2.058239   -1.340696
     25          1           0        1.255726   -0.829293   -3.136756
     26          1           0        1.267142   -3.443157    0.337324
     27          7           0        2.839577   -1.935097   -1.248567
     28          6           0        3.563182   -2.344003   -0.034270
     29          1           0        3.459645   -3.419594    0.133143
     30          1           0        3.148583   -1.781726    0.815729
     31          6           0        3.563195   -0.881870   -1.972131
     32          1           0        3.816395   -1.226848   -2.982126
     33          1           0        2.927492    0.005789   -2.032195
     34          7           0       -1.285547   -0.320222    0.860752
     35         16           0       -1.350476   -1.167901    2.250431
     36          8           0       -2.541099   -2.023637    2.219177
     37          8           0       -0.054169   -1.817363    2.465156
     38          6           0       -0.629877    2.699466    0.056950
     39          6           0       -0.155639    2.234748   -1.179729
     40          6           0       -0.945858    2.325236   -2.323771
     41          6           0       -2.227617    2.873311   -2.265890
     42          6           0       -2.712731    3.331594   -1.044462
     43          6           0       -1.915747    3.245489    0.097522
     44          1           0        0.812434    1.749500   -1.215934
     45          1           0       -0.551212    1.970875   -3.273559
     46          1           0       -2.837771    2.947659   -3.161886
     47          1           0       -3.708539    3.761759   -0.978222
     48          1           0       -2.302296    3.618247    1.044215
     49          8           0        0.682589    1.562611    1.909102
     50          1           0       -0.297023   -0.069559    0.555552
     51          6           0        1.814220    0.832540    1.264091
     52          8           0        1.403387    0.225525    0.168385
     53          8           0        2.204865   -0.051247    2.299367
     54          1           0        1.505880   -0.730056    2.332678
     55          6           0        3.022710    1.798362    1.132248
     56          1           0        2.989199    2.517175    1.960789
     57          1           0        3.911940    1.181788    1.315480
     58          6           0        0.218556    2.751201    1.330839
     59          1           0       -0.404252    3.222918    2.101865
     60          1           0        1.055378    3.442842    1.154032
     61          6           0       -1.537146    0.044029    3.537487
     62          1           0       -0.676825    0.713327    3.449034
     63          1           0       -2.476308    0.574608    3.371329
     64          1           0       -1.550727   -0.483677    4.492546
     65          6           0        3.199704    2.523088   -0.198995
     66          1           0        3.142446    1.791076   -1.011978
     67          1           0        2.382489    3.229040   -0.383256
     68          6           0        4.529494    3.271429   -0.263190
     69          1           0        4.659066    3.789001   -1.218843
     70          1           0        4.595110    4.018191    0.534839
     71          1           0        5.372680    2.582893   -0.134735
     72          6           0        4.998583   -1.929547   -0.338710
     73          1           0        5.585873   -1.799998    0.572205
     74          1           0        5.486466   -2.684948   -0.964384
     75          6           0        4.806054   -0.624058   -1.114668
     76          1           0        4.585615    0.183382   -0.412113
     77          1           0        5.672813   -0.339264   -1.714849
 ---------------------------------------------------------------------

 SCF Done:  E(RM062X) =  -1991.35883912     A.U. after   14 cycles

 The electronic state is 1-A.
 Alpha  occ. eigenvalues --  -90.14096 -19.61713 -19.61694 -19.58752 -19.56732
 Alpha  occ. eigenvalues --  -19.51365 -14.85140 -14.80452 -14.75567 -10.63400
 Alpha  occ. eigenvalues --  -10.62773 -10.62313 -10.62119 -10.60680 -10.59261
 Alpha  occ. eigenvalues --  -10.58605 -10.57960 -10.57901 -10.57103 -10.56878
 Alpha  occ. eigenvalues --  -10.56666 -10.55626 -10.55582 -10.55149 -10.54944
 Alpha  occ. eigenvalues --  -10.54804 -10.54741 -10.54687 -10.54535 -10.54363
 Alpha  occ. eigenvalues --  -10.54287 -10.54251 -10.53096 -10.51608 -10.51523
 Alpha  occ. eigenvalues --  -10.49770  -8.45074  -6.37290  -6.37269  -6.37112
 Alpha  occ. eigenvalues --   -1.21925  -1.13631  -1.13492  -1.10178  -1.09350
 Alpha  occ. eigenvalues --   -1.05906  -1.01641  -0.99383  -0.95703  -0.94967
 Alpha  occ. eigenvalues --   -0.93467  -0.90264  -0.88750  -0.85898  -0.85825
 Alpha  occ. eigenvalues --   -0.84807  -0.84671  -0.84286  -0.83038  -0.82639
 Alpha  occ. eigenvalues --   -0.76649  -0.76343  -0.75831  -0.74398  -0.72735
 Alpha  occ. eigenvalues --   -0.71595  -0.68328  -0.68266  -0.67929  -0.67168
 Alpha  occ. eigenvalues --   -0.66761  -0.65209  -0.64870  -0.63519  -0.60577
 Alpha  occ. eigenvalues --   -0.60403  -0.59795  -0.58903  -0.57817  -0.57569
 Alpha  occ. eigenvalues --   -0.57146  -0.56427  -0.55736  -0.55162  -0.54176
 Alpha  occ. eigenvalues --   -0.53490  -0.52640  -0.52412  -0.52378  -0.51896
 Alpha  occ. eigenvalues --   -0.51535  -0.51063  -0.50901  -0.49851  -0.49591
 Alpha  occ. eigenvalues --   -0.49158  -0.48812  -0.48203  -0.48114  -0.48069
 Alpha  occ. eigenvalues --   -0.47639  -0.47440  -0.46898  -0.46465  -0.46095
 Alpha  occ. eigenvalues --   -0.44909  -0.44696  -0.44109  -0.43886  -0.43251
 Alpha  occ. eigenvalues --   -0.42466  -0.42097  -0.41489  -0.41401  -0.41163
 Alpha  occ. eigenvalues --   -0.40885  -0.40457  -0.40011  -0.39841  -0.39423
 Alpha  occ. eigenvalues --   -0.39256  -0.39050  -0.38455  -0.37904  -0.37582
 Alpha  occ. eigenvalues --   -0.37371  -0.36728  -0.36573  -0.35696  -0.34883
 Alpha  occ. eigenvalues --   -0.34363  -0.33910  -0.31712  -0.31017  -0.29744
 Alpha  occ. eigenvalues --   -0.28887  -0.28583  -0.27603  -0.24962  -0.24500
 Alpha virt. eigenvalues --   -0.01467   0.00451   0.03587   0.03796   0.10168
 Alpha virt. eigenvalues --    0.11042   0.11629   0.12130   0.13207   0.13548
 Alpha virt. eigenvalues --    0.14200   0.14664   0.14784   0.15290   0.15599

 Mulliken charges:
               1
     1  C   -0.306140
     2  C   -0.306960
     3  C   -0.309854
     4  C   -0.059527
     5  C    0.057212
     6  C   -0.311875
     7  H    0.173775
     8  H    0.162776
     9  H    0.165244
    10  H    0.150882
    11  H    0.163029
    12  H    0.208573
    13  H    0.172663
    14  H    0.193224
    15  H    0.163473
    16  H    0.153908
    17  N   -0.431399
    18  C    0.068779
    19  C    0.063852
    20  C   -0.203780
    21  H    0.206824
    22  C   -0.208898
    23  H    0.245755
    24  C    0.448286
    25  H    0.191280
    26  H    0.211709
    27  N   -0.527649
    28  C   -0.173634
    29  H    0.169837
    30  H    0.233695
    31  C   -0.154238
    32  H    0.167426
    33  H    0.202171
    34  N   -0.816966
    35  S    1.253944
    36  O   -0.612167
    37  O   -0.608567
    38  C    0.088448
    39  C   -0.180193
    40  C   -0.189167
    41  C   -0.170705
    42  C   -0.163660
    43  C   -0.212188
    44  H    0.206000
    45  H    0.140954
    46  H    0.154735
    47  H    0.158441
    48  H    0.152384
    49  O   -0.548592
    50  H    0.449527
    51  C    0.727028
    52  O   -0.723968
    53  O   -0.718152
    54  H    0.445656
    55  C   -0.338146
    56  H    0.149867
    57  H    0.149776
    58  C   -0.093449
    59  H    0.141020
    60  H    0.147030
    61  C   -0.662904
    62  H    0.271728
    63  H    0.196293
    64  H    0.217387
    65  C   -0.295223
    66  H    0.140270
    67  H    0.146785
    68  C   -0.474837
    69  H    0.149255
    70  H    0.155877
    71  H    0.143891
    72  C   -0.331777
    73  H    0.187528
    74  H    0.163369
    75  C   -0.343790
    76  H    0.195323
    77  H    0.171517
 Sum of Mulliken charges =  -0.00000

 Dipole moment (field-independent basis, Debye):
    X=             -2.2885    Y=             -1.8438    Z=             -6.4469  Tot=              7.0852
 Quadrupole moment (field-independent basis, Debye-Ang):
   XX=           -205.1611   YY=           -223.2521   ZZ=           -219.7418
   XY=            -12.1330   XZ=             -5.3674   YZ=             10.0429

 Normal termination of Gaussian 16 at Thu Feb  7 16:16:36 2019.
