 Gaussian 16, Revision A.03,
 Gaussian 16:  ES64L-G16RevA.03 25-Dec-2016

 ------------------------------------------
 #p M062X/6-31G* em=gd3 force int=ultrafine
 ------------------------------------------

 -----
 Title
 -----
 Symbolic Z-matrix:
 Charge =  0 Multiplicity = 1

                         Standard orientation:
 ---------------------------------------------------------------------
 Center     Atomic      Atomic             Coordinates (Angstroms)
 Number     Number       Type             X           Y           Z
 ---------------------------------------------------------------------
      1          6           0       -4.866264    0.041937   -0.418320
      2          6           0       -4.891804   -1.236508   -1.261636
      3          6           0       -3.507798   -1.526732   -1.854606
      4          6           0       -2.502643   -1.651117   -0.714317
      5          6           0       -2.418822   -0.333160    0.106498
      6          6           0       -3.809049   -0.033122    0.687390
      7          1           0       -3.518424   -2.441701   -2.458001
      8          1           0       -5.200437   -2.084335   -0.635986
      9          1           0       -5.626496   -1.150552   -2.068943
     10          1           0       -4.634751    0.894847   -1.071765
     11          1           0       -5.856323    0.226728    0.012076
     12          1           0       -2.809275   -2.460576   -0.046688
     13          1           0       -2.211804    0.454283   -0.633190
     14          1           0       -4.071023   -0.810755    1.416136
     15          1           0       -3.748579    0.922473    1.222476
     16          1           0       -3.236646   -0.690456   -2.513838
     17          7           0       -1.133587   -2.000502   -1.158899
     18          6           0       -0.527134   -1.301465   -2.145451
     19          6           0       -0.373862   -2.758843   -0.333833
     20          6           0        0.826124   -1.321323   -2.325607
     21          1           0       -1.174495   -0.701292   -2.771802
     22          6           0        0.985224   -2.825432   -0.448832
     23          1           0       -0.905550   -3.268209    0.462687
     24          6           0        1.652312   -2.025192   -1.406626
     25          1           0        1.253448   -0.745974   -3.136269
     26          1           0        1.526518   -3.408001    0.283396
     27          7           0        2.988204   -1.924482   -1.428757
     28          6           0        3.794174   -2.437381   -0.314283
     29          1           0        3.741300   -3.529185   -0.267909
     30          1           0        3.409636   -2.019966    0.626939
     31          6           0        3.675547   -0.834216   -2.136985
     32          1           0        3.929931   -1.147195   -3.157152
     33          1           0        3.030064    0.047280   -2.171747
     34          7           0       -1.296577   -0.288165    1.022117
     35         16           0       -1.256537   -1.243164    2.279128
     36          8           0       -2.239327   -2.348821    2.233349
     37          8           0        0.144529   -1.684732    2.520239
     38          6           0       -1.187720    2.845930   -0.175445
     39          6           0       -0.428053    2.199359   -1.155395
     40          6           0       -0.924464    2.077138   -2.451678
     41          6           0       -2.190785    2.562210   -2.777671
     42          6           0       -2.958107    3.187865   -1.796890
     43          6           0       -2.453424    3.330516   -0.506687
     44          1           0        0.526721    1.753679   -0.882217
     45          1           0       -0.319107    1.592319   -3.214313
     46          1           0       -2.577704    2.456338   -3.786883
     47          1           0       -3.949904    3.561951   -2.033944
     48          1           0       -3.055156    3.813098    0.260770
     49          8           0        0.195035    1.950569    1.609725
     50          1           0       -0.275471    1.103402    1.358830
     51          6           0        2.434096    0.664185    1.252820
     52          8           0        2.142413    0.218804    0.155638
     53          8           0        2.173633    0.045291    2.391399
     54          1           0        1.493210   -0.673004    2.263481
     55          6           0        3.188575    1.957204    1.455438
     56          1           0        2.725018    2.470424    2.302673
     57          1           0        4.215966    1.706772    1.757348
     58          6           0       -0.654477    2.996122    1.235131
     59          1           0       -1.507962    3.100990    1.926821
     60          1           0       -0.071867    3.925950    1.309123
     61          6           0       -1.651514   -0.239145    3.707972
     62          1           0       -0.960334    0.607221    3.705999
     63          1           0       -2.682866    0.104840    3.608071
     64          1           0       -1.529388   -0.841897    4.608927
     65          6           0        3.183959    2.834964    0.210966
     66          1           0        3.604002    2.275845   -0.634031
     67          1           0        2.142600    3.050896   -0.052485
     68          6           0        3.953378    4.135917    0.417647
     69          1           0        3.944360    4.751659   -0.486335
     70          1           0        3.512660    4.724904    1.228794
     71          1           0        4.998714    3.940454    0.680830
     72          6           0        5.197604   -1.923136   -0.622919
     73          1           0        5.808741   -1.841866    0.278165
     74          1           0        5.701650   -2.598807   -1.321686
     75          6           0        4.921178   -0.571721   -1.286311
     76          1           0        4.670306    0.170219   -0.522486
     77          1           0        5.759279   -0.198156   -1.878169
 ---------------------------------------------------------------------

 SCF Done:  E(RM062X) =  -1991.39009227     A.U. after   15 cycles

 The electronic state is 1-A.
 Alpha  occ. eigenvalues --  -90.10390 -19.63384 -19.60100 -19.59318 -19.58618
 Alpha  occ. eigenvalues --  -19.58373 -14.84815 -14.80527 -14.69427 -10.65448
 Alpha  occ. eigenvalues --  -10.63242 -10.62389 -10.61523 -10.59156 -10.59117
 Alpha  occ. eigenvalues --  -10.59026 -10.57817 -10.57434 -10.56848 -10.56650
 Alpha  occ. eigenvalues --  -10.56075 -10.55772 -10.55494 -10.54963 -10.54914
 Alpha  occ. eigenvalues --  -10.54855 -10.54574 -10.54537 -10.54487 -10.53777
 Alpha  occ. eigenvalues --  -10.53741 -10.53557 -10.53129 -10.52963 -10.52636
 Alpha  occ. eigenvalues --  -10.52522  -8.41356  -6.33593  -6.33500  -6.33420
 Alpha  occ. eigenvalues --   -1.19129  -1.17924  -1.12948  -1.10342  -1.09851
 Alpha  occ. eigenvalues --   -1.09166  -1.06191  -0.97555  -0.95250  -0.94823
 Alpha  occ. eigenvalues --   -0.92191  -0.89860  -0.88597  -0.88007  -0.85015
 Alpha  occ. eigenvalues --   -0.84963  -0.83649  -0.83506  -0.83302  -0.80214
 Alpha  occ. eigenvalues --   -0.79098  -0.76366  -0.75668  -0.74664  -0.70947
 Alpha  occ. eigenvalues --   -0.70193  -0.69050  -0.68738  -0.68368  -0.67990
 Alpha  occ. eigenvalues --   -0.65748  -0.64725  -0.63956  -0.63431  -0.61649
 Alpha  occ. eigenvalues --   -0.60279  -0.59405  -0.58955  -0.58367  -0.56174
 Alpha  occ. eigenvalues --   -0.55466  -0.55158  -0.55063  -0.54036  -0.53664
 Alpha  occ. eigenvalues --   -0.53435  -0.53082  -0.52348  -0.51978  -0.51729
 Alpha  occ. eigenvalues --   -0.51164  -0.51007  -0.50611  -0.50226  -0.49830
 Alpha  occ. eigenvalues --   -0.49619  -0.49444  -0.48848  -0.48365  -0.48007
 Alpha  occ. eigenvalues --   -0.47762  -0.47170  -0.46970  -0.46899  -0.45949
 Alpha  occ. eigenvalues --   -0.45866  -0.45251  -0.43964  -0.43650  -0.43421
 Alpha  occ. eigenvalues --   -0.42756  -0.42435  -0.42269  -0.41915  -0.41883
 Alpha  occ. eigenvalues --   -0.41159  -0.40829  -0.40590  -0.39924  -0.39518
 Alpha  occ. eigenvalues --   -0.39372  -0.39182  -0.38719  -0.38376  -0.37806
 Alpha  occ. eigenvalues --   -0.37361  -0.36264  -0.35918  -0.35377  -0.35107
 Alpha  occ. eigenvalues --   -0.34416  -0.33150  -0.32114  -0.31702  -0.31507
 Alpha  occ. eigenvalues --   -0.29835  -0.28887  -0.28322  -0.27530  -0.25440
 Alpha virt. eigenvalues --   -0.01022   0.00644   0.03335   0.03813   0.09094
 Alpha virt. eigenvalues --    0.10127   0.10941   0.11756   0.13008   0.13423
 Alpha virt. eigenvalues --    0.13821   0.14205   0.15196   0.15527   0.15737

 Mulliken charges:
               1
     1  C   -0.303974
     2  C   -0.304203
     3  C   -0.309800
     4  C   -0.073459
     5  C    0.062011
     6  C   -0.305265
     7  H    0.165804
     8  H    0.160898
     9  H    0.159182
    10  H    0.146657
    11  H    0.156635
    12  H    0.213136
    13  H    0.141445
    14  H    0.179857
    15  H    0.148701
    16  H    0.151240
    17  N   -0.424637
    18  C    0.100505
    19  C    0.084338
    20  C   -0.228032
    21  H    0.205549
    22  C   -0.227296
    23  H    0.264181
    24  C    0.428628
    25  H    0.188284
    26  H    0.206757
    27  N   -0.529438
    28  C   -0.156896
    29  H    0.178429
    30  H    0.199022
    31  C   -0.147360
    32  H    0.169513
    33  H    0.196443
    34  N   -0.754953
    35  S    1.249214
    36  O   -0.647030
    37  O   -0.670799
    38  C    0.048952
    39  C   -0.177148
    40  C   -0.186992
    41  C   -0.170096
    42  C   -0.162430
    43  C   -0.197381
    44  H    0.201558
    45  H    0.139630
    46  H    0.156434
    47  H    0.161762
    48  H    0.156267
    49  O   -0.709960
    50  H    0.480242
    51  C    0.643752
    52  O   -0.523743
    53  O   -0.643898
    54  H    0.485619
    55  C   -0.366811
    56  H    0.199742
    57  H    0.163874
    58  C   -0.069374
    59  H    0.128847
    60  H    0.160817
    61  C   -0.655572
    62  H    0.218151
    63  H    0.188261
    64  H    0.208204
    65  C   -0.286909
    66  H    0.143033
    67  H    0.168359
    68  C   -0.480464
    69  H    0.158270
    70  H    0.158705
    71  H    0.149609
    72  C   -0.337465
    73  H    0.183930
    74  H    0.170091
    75  C   -0.335582
    76  H    0.183052
    77  H    0.173378
 Sum of Mulliken charges =  -0.00000

 Dipole moment (field-independent basis, Debye):
    X=              1.5738    Y=             -0.4180    Z=             -6.4864  Tot=              6.6876
 Quadrupole moment (field-independent basis, Debye-Ang):
   XX=           -197.7494   YY=           -223.6686   ZZ=           -221.5806
   XY=            -12.1736   XZ=             -1.4995   YZ=             12.2649

 Normal termination of Gaussian 16 at Fri Feb  8 01:13:08 2019.
