 Gaussian 16, Revision A.03,
 Gaussian 16:  ES64L-G16RevA.03 25-Dec-2016

 ------------------------------------------
 #p M062X/6-31G* em=gd3 force int=ultrafine
 ------------------------------------------

 -----
 Title
 -----
 Symbolic Z-matrix:
 Charge =  0 Multiplicity = 1

                         Standard orientation:
 ---------------------------------------------------------------------
 Center     Atomic      Atomic             Coordinates (Angstroms)
 Number     Number       Type             X           Y           Z
 ---------------------------------------------------------------------
      1          6           0       -4.843641    0.440155   -0.514857
      2          6           0       -4.991996   -0.832037   -1.354404
      3          6           0       -3.640864   -1.254834   -1.943509
      4          6           0       -2.650916   -1.482926   -0.805192
      5          6           0       -2.466760   -0.194066    0.035405
      6          6           0       -3.816989    0.255975    0.607104
      7          1           0       -3.735972   -2.161922   -2.550325
      8          1           0       -5.385169   -1.644009   -0.728600
      9          1           0       -5.711365   -0.676028   -2.164615
     10          1           0       -4.516397    1.262719   -1.165594
     11          1           0       -5.812463    0.728717   -0.094303
     12          1           0       -3.027674   -2.276530   -0.152096
     13          1           0       -2.132813    0.585113   -0.662840
     14          1           0       -4.173419   -0.485482    1.331099
     15          1           0       -3.658783    1.201788    1.138134
     16          1           0       -3.287535   -0.446535   -2.597871
     17          7           0       -1.311171   -1.929367   -1.249423
     18          6           0       -0.642064   -1.250296   -2.214943
     19          6           0       -0.604427   -2.733883   -0.415682
     20          6           0        0.710885   -1.329397   -2.358106
     21          1           0       -1.241192   -0.612741   -2.852085
     22          6           0        0.750955   -2.854609   -0.487858
     23          1           0       -1.179647   -3.238494    0.352928
     24          6           0        1.483703   -2.069207   -1.416563
     25          1           0        1.185360   -0.760305   -3.146546
     26          1           0        1.245020   -3.467595    0.252725
     27          7           0        2.815824   -2.022664   -1.396600
     28          6           0        3.563200   -2.538972   -0.239956
     29          1           0        3.444414   -3.622614   -0.154080
     30          1           0        3.182009   -2.047743    0.666340
     31          6           0        3.568590   -0.959285   -2.084867
     32          1           0        3.832862   -1.284556   -3.098300
     33          1           0        2.962798   -0.050999   -2.124725
     34          7           0       -1.365694   -0.322793    0.974475
     35         16           0       -1.405621   -1.221317    2.325234
     36          8           0       -2.588171   -2.089542    2.280817
     37          8           0       -0.097715   -1.871313    2.491158
     38          6           0       -0.667790    2.745300   -0.066606
     39          6           0       -0.117082    2.102129   -1.184275
     40          6           0       -0.777412    2.145189   -2.411220
     41          6           0       -2.010095    2.788952   -2.534942
     42          6           0       -2.573454    3.405820   -1.419952
     43          6           0       -1.899213    3.385910   -0.200369
     44          1           0        0.807572    1.538162   -1.064796
     45          1           0       -0.328945    1.670793   -3.282529
     46          1           0       -2.524768    2.815491   -3.491061
     47          1           0       -3.535523    3.904058   -1.497004
     48          1           0       -2.338072    3.864656    0.672380
     49          8           0        0.439489    1.415717    1.623734
     50          1           0       -0.569025    0.427834    1.058915
     51          6           0        2.214108    0.652666    1.179794
     52          8           0        2.037944    0.158082    0.059318
     53          8           0        2.224362   -0.132554    2.290435
     54          1           0        1.532995   -0.816225    2.176229
     55          6           0        3.083672    1.880817    1.387514
     56          1           0        2.685661    2.487079    2.207525
     57          1           0        4.052884    1.493576    1.733848
     58          6           0        0.029734    2.685550    1.285624
     59          1           0       -0.670548    3.090978    2.041236
     60          1           0        0.879308    3.396945    1.270523
     61          6           0       -1.531018   -0.046467    3.657891
     62          1           0       -0.690938    0.641304    3.511124
     63          1           0       -2.488042    0.471299    3.575555
     64          1           0       -1.454410   -0.587290    4.602291
     65          6           0        3.296384    2.707748    0.122790
     66          1           0        3.675650    2.052689   -0.670378
     67          1           0        2.339918    3.094067   -0.246750
     68          6           0        4.265342    3.864796    0.355638
     69          1           0        4.441628    4.434528   -0.561743
     70          1           0        3.876161    4.557109    1.110109
     71          1           0        5.233328    3.497658    0.714676
     72          6           0        4.997946   -2.114553   -0.532681
     73          1           0        5.600726   -2.064511    0.376042
     74          1           0        5.468398   -2.821299   -1.224756
     75          6           0        4.800352   -0.752365   -1.199779
     76          1           0        4.550133   -0.009104   -0.437533
     77          1           0        5.668918   -0.409508   -1.765739
 ---------------------------------------------------------------------

 SCF Done:  E(RM062X) =  -1991.35699454     A.U. after   15 cycles

 The electronic state is 1-A.
 Alpha  occ. eigenvalues --  -90.13604 -19.61484 -19.61204 -19.60470 -19.55789
 Alpha  occ. eigenvalues --  -19.54280 -14.85325 -14.80477 -14.74460 -10.64097
 Alpha  occ. eigenvalues --  -10.63478 -10.62799 -10.62270 -10.60708 -10.59033
 Alpha  occ. eigenvalues --  -10.58544 -10.58450 -10.58030 -10.57217 -10.56565
 Alpha  occ. eigenvalues --  -10.55506 -10.55457 -10.55404 -10.55094 -10.54939
 Alpha  occ. eigenvalues --  -10.54608 -10.54592 -10.54518 -10.54477 -10.54099
 Alpha  occ. eigenvalues --  -10.53864 -10.53465 -10.52942 -10.51936 -10.51742
 Alpha  occ. eigenvalues --  -10.51354  -8.44605  -6.36826  -6.36770  -6.36663
 Alpha  occ. eigenvalues --   -1.21391  -1.15476  -1.13545  -1.09637  -1.09339
 Alpha  occ. eigenvalues --   -1.05735  -1.03701  -1.00755  -0.95662  -0.94560
 Alpha  occ. eigenvalues --   -0.93416  -0.90284  -0.88798  -0.86613  -0.85707
 Alpha  occ. eigenvalues --   -0.84612  -0.84381  -0.83798  -0.82828  -0.82287
 Alpha  occ. eigenvalues --   -0.77472  -0.76725  -0.75848  -0.72541  -0.72023
 Alpha  occ. eigenvalues --   -0.71504  -0.68441  -0.68323  -0.67772  -0.67190
 Alpha  occ. eigenvalues --   -0.66615  -0.64963  -0.64245  -0.63348  -0.61118
 Alpha  occ. eigenvalues --   -0.60412  -0.60085  -0.58924  -0.58112  -0.57374
 Alpha  occ. eigenvalues --   -0.56834  -0.56380  -0.55147  -0.54353  -0.53807
 Alpha  occ. eigenvalues --   -0.53367  -0.52522  -0.52415  -0.52156  -0.51814
 Alpha  occ. eigenvalues --   -0.51481  -0.51205  -0.50831  -0.50200  -0.49888
 Alpha  occ. eigenvalues --   -0.49618  -0.48737  -0.48391  -0.48166  -0.47879
 Alpha  occ. eigenvalues --   -0.47504  -0.47207  -0.47111  -0.46351  -0.46141
 Alpha  occ. eigenvalues --   -0.45517  -0.45026  -0.44655  -0.43696  -0.43261
 Alpha  occ. eigenvalues --   -0.42440  -0.42301  -0.41666  -0.41575  -0.41155
 Alpha  occ. eigenvalues --   -0.41074  -0.40490  -0.40009  -0.39909  -0.39596
 Alpha  occ. eigenvalues --   -0.39456  -0.38756  -0.38298  -0.38052  -0.37708
 Alpha  occ. eigenvalues --   -0.37664  -0.37355  -0.36869  -0.36066  -0.35407
 Alpha  occ. eigenvalues --   -0.34774  -0.34068  -0.32925  -0.30073  -0.29397
 Alpha  occ. eigenvalues --   -0.28840  -0.28490  -0.28066  -0.26025  -0.24699
 Alpha virt. eigenvalues --   -0.01472   0.00341   0.03677   0.04340   0.10214
 Alpha virt. eigenvalues --    0.11022   0.11485   0.11972   0.13179   0.13429
 Alpha virt. eigenvalues --    0.13968   0.14090   0.14787   0.15365   0.15389

 Mulliken charges:
               1
     1  C   -0.306875
     2  C   -0.306965
     3  C   -0.311609
     4  C   -0.064395
     5  C    0.069177
     6  C   -0.307154
     7  H    0.172748
     8  H    0.162439
     9  H    0.165111
    10  H    0.152522
    11  H    0.163024
    12  H    0.209170
    13  H    0.170349
    14  H    0.188346
    15  H    0.161129
    16  H    0.156623
    17  N   -0.432416
    18  C    0.089308
    19  C    0.089426
    20  C   -0.218292
    21  H    0.206190
    22  C   -0.225265
    23  H    0.249319
    24  C    0.436489
    25  H    0.192453
    26  H    0.209229
    27  N   -0.520077
    28  C   -0.161334
    29  H    0.172685
    30  H    0.208342
    31  C   -0.146816
    32  H    0.166055
    33  H    0.201838
    34  N   -0.818974
    35  S    1.242896
    36  O   -0.611310
    37  O   -0.615229
    38  C    0.056569
    39  C   -0.196641
    40  C   -0.190783
    41  C   -0.175601
    42  C   -0.162634
    43  C   -0.206543
    44  H    0.216644
    45  H    0.135783
    46  H    0.153072
    47  H    0.157286
    48  H    0.153821
    49  O   -0.677487
    50  H    0.455214
    51  C    0.676464
    52  O   -0.583484
    53  O   -0.664090
    54  H    0.457444
    55  C   -0.345259
    56  H    0.177254
    57  H    0.153255
    58  C   -0.040607
    59  H    0.099397
    60  H    0.120214
    61  C   -0.671180
    62  H    0.267200
    63  H    0.197624
    64  H    0.217607
    65  C   -0.290206
    66  H    0.141514
    67  H    0.157933
    68  C   -0.477753
    69  H    0.153442
    70  H    0.155458
    71  H    0.148593
    72  C   -0.334709
    73  H    0.184897
    74  H    0.164931
    75  C   -0.336614
    76  H    0.194309
    77  H    0.169508
 Sum of Mulliken charges =  -0.00000

 Dipole moment (field-independent basis, Debye):
    X=             -1.2399    Y=             -2.0708    Z=             -6.0882  Tot=              6.5492
 Quadrupole moment (field-independent basis, Debye-Ang):
   XX=           -202.6970   YY=           -225.2956   ZZ=           -219.3878
   XY=            -12.0812   XZ=             -2.7220   YZ=             10.4931

 Normal termination of Gaussian 16 at Thu Feb  7 19:08:50 2019.
