 Gaussian 16, Revision A.03,
 Gaussian 16:  ES64L-G16RevA.03 25-Dec-2016

 ------------------------------------------
 #p M062X/6-31G* em=gd3 force int=ultrafine
 ------------------------------------------

 -----
 Title
 -----
 Symbolic Z-matrix:
 Charge =  0 Multiplicity = 1

                         Standard orientation:
 ---------------------------------------------------------------------
 Center     Atomic      Atomic             Coordinates (Angstroms)
 Number     Number       Type             X           Y           Z
 ---------------------------------------------------------------------
      1          6           0       -4.870228    0.124239   -0.437342
      2          6           0       -4.932695   -1.167017   -1.258808
      3          6           0       -3.557686   -1.507841   -1.846075
      4          6           0       -2.551491   -1.633240   -0.706553
      5          6           0       -2.435671   -0.304155    0.093697
      6          6           0       -3.817675    0.035685    0.671973
      7          1           0       -3.594533   -2.435423   -2.428892
      8          1           0       -5.267152   -1.994382   -0.619282
      9          1           0       -5.663717   -1.073257   -2.068690
     10          1           0       -4.610588    0.958268   -1.104571
     11          1           0       -5.855312    0.347230   -0.013768
     12          1           0       -2.872209   -2.424952   -0.023902
     13          1           0       -2.213486    0.468272   -0.657879
     14          1           0       -4.099562   -0.726789    1.409251
     15          1           0       -3.734013    0.995540    1.195655
     16          1           0       -3.266543   -0.694554   -2.525043
     17          7           0       -1.190703   -2.017297   -1.149130
     18          6           0       -0.572914   -1.345909   -2.148166
     19          6           0       -0.440925   -2.765772   -0.306009
     20          6           0        0.780840   -1.382242   -2.322067
     21          1           0       -1.211767   -0.753953   -2.790823
     22          6           0        0.918067   -2.846620   -0.412923
     23          1           0       -0.980124   -3.253903    0.498739
     24          6           0        1.597026   -2.071499   -1.382775
     25          1           0        1.216410   -0.827981   -3.142969
     26          1           0        1.449871   -3.416325    0.336142
     27          7           0        2.933901   -1.979168   -1.396278
     28          6           0        3.724235   -2.461977   -0.256770
     29          1           0        3.667687   -3.551749   -0.179876
     30          1           0        3.328861   -2.017189    0.667228
     31          6           0        3.633020   -0.909636   -2.124718
     32          1           0        3.894380   -1.248696   -3.134566
     33          1           0        2.992347   -0.026035   -2.187178
     34          7           0       -1.308176   -0.271104    1.001152
     35         16           0       -1.272823   -1.195888    2.280901
     36          8           0       -2.279762   -2.280543    2.271655
     37          8           0        0.122659   -1.658293    2.515137
     38          6           0       -1.051319    2.860025   -0.163844
     39          6           0       -0.362180    2.174065   -1.170506
     40          6           0       -0.922649    2.058705   -2.440629
     41          6           0       -2.186313    2.584968   -2.711724
     42          6           0       -2.887348    3.239490   -1.701583
     43          6           0       -2.316361    3.377548   -0.438416
     44          1           0        0.588854    1.697328   -0.939144
     45          1           0       -0.370531    1.548654   -3.226877
     46          1           0       -2.622802    2.486243   -3.701219
     47          1           0       -3.877840    3.641679   -1.893153
     48          1           0       -2.863239    3.884968    0.353211
     49          8           0        0.245442    1.881180    1.639452
     50          1           0       -0.287789    1.083334    1.348250
     51          6           0        2.440580    0.639807    1.201395
     52          8           0        2.106851    0.205359    0.112712
     53          8           0        2.232264    0.001953    2.342055
     54          1           0        1.521900   -0.689166    2.235406
     55          6           0        3.192474    1.937024    1.387465
     56          1           0        2.698028    2.474405    2.202176
     57          1           0        4.207112    1.697423    1.735534
     58          6           0       -0.443473    3.020204    1.213795
     59          1           0       -1.237323    3.309526    1.922137
     60          1           0        0.282003    3.847293    1.199333
     61          6           0       -1.625260   -0.145061    3.687171
     62          1           0       -0.907911    0.678607    3.654895
     63          1           0       -2.646125    0.228733    3.586989
     64          1           0       -1.512672   -0.727447    4.602594
     65          6           0        3.232753    2.777401    0.117375
     66          1           0        3.658386    2.185206   -0.701767
     67          1           0        2.204187    3.008636   -0.181723
     68          6           0        4.026740    4.067305    0.299379
     69          1           0        4.058001    4.648929   -0.626508
     70          1           0        3.579414    4.696620    1.075904
     71          1           0        5.059269    3.856211    0.598429
     72          6           0        5.133519   -1.960969   -0.560347
     73          1           0        5.729780   -1.851294    0.347719
     74          1           0        5.647191   -2.659872   -1.228294
     75          6           0        4.873106   -0.630457   -1.270699
     76          1           0        4.623388    0.137888   -0.533620
     77          1           0        5.719502   -0.282511   -1.866360
 ---------------------------------------------------------------------

 SCF Done:  E(RM062X) =  -1991.38810843     A.U. after   15 cycles

 The electronic state is 1-A.
 Alpha  occ. eigenvalues --  -90.10326 -19.63393 -19.60100 -19.59159 -19.58526
 Alpha  occ. eigenvalues --  -19.58325 -14.84792 -14.80483 -14.69351 -10.65509
 Alpha  occ. eigenvalues --  -10.63218 -10.62406 -10.61502 -10.59125 -10.59078
 Alpha  occ. eigenvalues --  -10.59026 -10.57822 -10.57416 -10.56798 -10.56662
 Alpha  occ. eigenvalues --  -10.56014 -10.55737 -10.55541 -10.54987 -10.54927
 Alpha  occ. eigenvalues --  -10.54877 -10.54603 -10.54563 -10.54503 -10.53814
 Alpha  occ. eigenvalues --  -10.53631 -10.53567 -10.53226 -10.53170 -10.52670
 Alpha  occ. eigenvalues --  -10.52618  -8.41289  -6.33527  -6.33434  -6.33354
 Alpha  occ. eigenvalues --   -1.19143  -1.17843  -1.12929  -1.10260  -1.09870
 Alpha  occ. eigenvalues --   -1.09124  -1.06109  -0.97528  -0.95280  -0.94780
 Alpha  occ. eigenvalues --   -0.92184  -0.89842  -0.88571  -0.88138  -0.85031
 Alpha  occ. eigenvalues --   -0.84926  -0.83658  -0.83507  -0.83300  -0.80153
 Alpha  occ. eigenvalues --   -0.79206  -0.76338  -0.75643  -0.74684  -0.70935
 Alpha  occ. eigenvalues --   -0.70202  -0.69146  -0.68702  -0.68350  -0.68030
 Alpha  occ. eigenvalues --   -0.65857  -0.64730  -0.63931  -0.63436  -0.61605
 Alpha  occ. eigenvalues --   -0.60259  -0.59380  -0.59016  -0.58349  -0.56161
 Alpha  occ. eigenvalues --   -0.55464  -0.55182  -0.55081  -0.54149  -0.53722
 Alpha  occ. eigenvalues --   -0.53443  -0.53064  -0.52467  -0.51943  -0.51701
 Alpha  occ. eigenvalues --   -0.51115  -0.50979  -0.50611  -0.50112  -0.49831
 Alpha  occ. eigenvalues --   -0.49588  -0.49526  -0.48810  -0.48337  -0.47992
 Alpha  occ. eigenvalues --   -0.47806  -0.47179  -0.47006  -0.46980  -0.45908
 Alpha  occ. eigenvalues --   -0.45749  -0.45231  -0.43944  -0.43654  -0.43431
 Alpha  occ. eigenvalues --   -0.42786  -0.42567  -0.42214  -0.41985  -0.41885
 Alpha  occ. eigenvalues --   -0.41161  -0.40877  -0.40548  -0.39899  -0.39550
 Alpha  occ. eigenvalues --   -0.39360  -0.39235  -0.38847  -0.38388  -0.37928
 Alpha  occ. eigenvalues --   -0.37311  -0.36214  -0.35834  -0.35342  -0.35128
 Alpha  occ. eigenvalues --   -0.34357  -0.33080  -0.32046  -0.31684  -0.31496
 Alpha  occ. eigenvalues --   -0.29876  -0.28875  -0.28317  -0.27419  -0.25378
 Alpha virt. eigenvalues --   -0.01027   0.00660   0.03244   0.03772   0.09031
 Alpha virt. eigenvalues --    0.10165   0.10904   0.11814   0.12969   0.13533
 Alpha virt. eigenvalues --    0.13870   0.14276   0.15032   0.15482   0.15797

 Mulliken charges:
               1
     1  C   -0.303909
     2  C   -0.304182
     3  C   -0.309609
     4  C   -0.073194
     5  C    0.063427
     6  C   -0.305038
     7  H    0.166243
     8  H    0.160986
     9  H    0.159127
    10  H    0.145942
    11  H    0.156742
    12  H    0.212331
    13  H    0.141319
    14  H    0.179330
    15  H    0.149870
    16  H    0.150269
    17  N   -0.424123
    18  C    0.099399
    19  C    0.084123
    20  C   -0.227526
    21  H    0.204808
    22  C   -0.226565
    23  H    0.263871
    24  C    0.427901
    25  H    0.188016
    26  H    0.207269
    27  N   -0.528379
    28  C   -0.158021
    29  H    0.178349
    30  H    0.199047
    31  C   -0.146691
    32  H    0.169580
    33  H    0.195225
    34  N   -0.757027
    35  S    1.249386
    36  O   -0.645857
    37  O   -0.670171
    38  C    0.048706
    39  C   -0.176727
    40  C   -0.187420
    41  C   -0.169739
    42  C   -0.161689
    43  C   -0.198504
    44  H    0.204356
    45  H    0.139144
    46  H    0.156487
    47  H    0.161944
    48  H    0.157341
    49  O   -0.713869
    50  H    0.482803
    51  C    0.651251
    52  O   -0.522278
    53  O   -0.646266
    54  H    0.485574
    55  C   -0.369227
    56  H    0.201708
    57  H    0.164553
    58  C   -0.065227
    59  H    0.127781
    60  H    0.154033
    61  C   -0.658203
    62  H    0.221545
    63  H    0.187496
    64  H    0.207401
    65  C   -0.287850
    66  H    0.144398
    67  H    0.164032
    68  C   -0.480333
    69  H    0.158796
    70  H    0.158426
    71  H    0.150889
    72  C   -0.337153
    73  H    0.184315
    74  H    0.169976
    75  C   -0.335851
    76  H    0.181978
    77  H    0.173133
 Sum of Mulliken charges =  -0.00000

 Dipole moment (field-independent basis, Debye):
    X=              1.5433    Y=             -0.3245    Z=             -6.5787  Tot=              6.7651
 Quadrupole moment (field-independent basis, Debye-Ang):
   XX=           -198.6075   YY=           -222.7444   ZZ=           -222.2256
   XY=            -11.8214   XZ=             -0.7204   YZ=             12.5162

 Normal termination of Gaussian 16 at Thu Feb  7 23:44:30 2019.
