 Gaussian 16, Revision A.03,
 Gaussian 16:  ES64L-G16RevA.03 25-Dec-2016

 ------------------------------------------
 #p M062X/6-31G* em=gd3 force int=ultrafine
 ------------------------------------------

 -----
 Title
 -----
 Symbolic Z-matrix:
 Charge =  0 Multiplicity = 1

                         Standard orientation:
 ---------------------------------------------------------------------
 Center     Atomic      Atomic             Coordinates (Angstroms)
 Number     Number       Type             X           Y           Z
 ---------------------------------------------------------------------
      1          6           0       -4.866473    0.043484   -0.418959
      2          6           0       -4.892812   -1.235596   -1.261270
      3          6           0       -3.508996   -1.527191   -1.854034
      4          6           0       -2.503839   -1.651032   -0.713740
      5          6           0       -2.419285   -0.332479    0.106072
      6          6           0       -3.809332   -0.031397    0.686840
      7          1           0       -3.520179   -2.442748   -2.456515
      8          1           0       -5.202003   -2.082737   -0.634962
      9          1           0       -5.627435   -1.149814   -2.068663
     10          1           0       -4.634365    0.895730   -1.073070
     11          1           0       -5.856428    0.229275    0.011248
     12          1           0       -2.810797   -2.459718   -0.045320
     13          1           0       -2.211958    0.454438   -0.634109
     14          1           0       -4.071683   -0.808481    1.416052
     15          1           0       -3.748430    0.924493    1.221351
     16          1           0       -3.237429   -0.691710   -2.514096
     17          7           0       -1.134968   -2.001521   -1.158077
     18          6           0       -0.528212   -1.303757   -2.145351
     19          6           0       -0.375541   -2.759304   -0.332231
     20          6           0        0.825063   -1.324194   -2.325355
     21          1           0       -1.175367   -0.704152   -2.772457
     22          6           0        0.983566   -2.826368   -0.447010
     23          1           0       -0.907435   -3.267801    0.464695
     24          6           0        1.650961   -2.027171   -1.405419
     25          1           0        1.252619   -0.749867   -3.136624
     26          1           0        1.524581   -3.408338    0.285903
     27          7           0        2.986888   -1.926565   -1.427203
     28          6           0        3.792306   -2.437858   -0.311560
     29          1           0        3.739537   -3.529605   -0.263719
     30          1           0        3.407166   -2.019245    0.628896
     31          6           0        3.674504   -0.837161   -2.136494
     32          1           0        3.929291   -1.151392   -3.156169
     33          1           0        3.029006    0.044298   -2.172643
     34          7           0       -1.296920   -0.287576    1.021361
     35         16           0       -1.256929   -1.241057    2.279273
     36          8           0       -2.240072   -2.346579    2.234783
     37          8           0        0.144189   -1.682719    2.520502
     38          6           0       -1.183916    2.847222   -0.175362
     39          6           0       -0.426514    2.198554   -1.155971
     40          6           0       -0.925210    2.075580   -2.451384
     41          6           0       -2.191660    2.561749   -2.775763
     42          6           0       -2.956793    3.189120   -1.794258
     43          6           0       -2.449727    3.332632   -0.504954
     44          1           0        0.528232    1.751939   -0.884006
     45          1           0       -0.321666    1.589346   -3.214646
     46          1           0       -2.580414    2.455343   -3.784276
     47          1           0       -3.948681    3.563947   -2.029931
     48          1           0       -3.049474    3.816616    0.263141
     49          8           0        0.196201    1.949452    1.610279
     50          1           0       -0.275397    1.103305    1.357974
     51          6           0        2.434226    0.663752    1.250888
     52          8           0        2.140836    0.218660    0.154084
     53          8           0        2.175383    0.044703    2.389926
     54          1           0        1.494505   -0.673007    2.262217
     55          6           0        3.188846    1.956878    1.452375
     56          1           0        2.724796    2.471044    2.298661
     57          1           0        4.215950    1.706711    1.755433
     58          6           0       -0.647675    2.998754    1.233839
     59          1           0       -1.498104    3.111426    1.926729
     60          1           0       -0.058830    3.923395    1.303040
     61          6           0       -1.651119   -0.235577    3.707389
     62          1           0       -0.959560    0.610285    3.704217
     63          1           0       -2.682319    0.108706    3.607399
     64          1           0       -1.528929   -0.837641    4.608848
     65          6           0        3.185406    2.833238    0.206918
     66          1           0        3.605984    2.273157   -0.637210
     67          1           0        2.144448    3.049155   -0.057799
     68          6           0        3.954919    4.134312    0.412590
     69          1           0        3.946941    4.748803   -0.492342
     70          1           0        3.513478    4.724573    1.222424
     71          1           0        5.000013    3.939005    0.677082
     72          6           0        5.195866   -1.923902   -0.620037
     73          1           0        5.806359   -1.841163    0.281348
     74          1           0        5.700484   -2.600584   -1.317411
     75          6           0        4.919799   -0.573510   -1.285659
     76          1           0        4.668735    0.169645   -0.523084
     77          1           0        5.758183   -0.200896   -1.877721
 ---------------------------------------------------------------------

 SCF Done:  E(RM062X) =  -1991.39003708     A.U. after   15 cycles

 The electronic state is 1-A.
 Alpha  occ. eigenvalues --  -90.10384 -19.63386 -19.60103 -19.59306 -19.58609
 Alpha  occ. eigenvalues --  -19.58366 -14.84814 -14.80526 -14.69422 -10.65451
 Alpha  occ. eigenvalues --  -10.63242 -10.62390 -10.61522 -10.59156 -10.59116
 Alpha  occ. eigenvalues --  -10.59026 -10.57818 -10.57411 -10.56846 -10.56649
 Alpha  occ. eigenvalues --  -10.56074 -10.55772 -10.55495 -10.54966 -10.54917
 Alpha  occ. eigenvalues --  -10.54859 -10.54577 -10.54538 -10.54490 -10.53769
 Alpha  occ. eigenvalues --  -10.53747 -10.53557 -10.53131 -10.52971 -10.52635
 Alpha  occ. eigenvalues --  -10.52529  -8.41349  -6.33587  -6.33494  -6.33414
 Alpha  occ. eigenvalues --   -1.19129  -1.17913  -1.12947  -1.10336  -1.09853
 Alpha  occ. eigenvalues --   -1.09167  -1.06180  -0.97555  -0.95246  -0.94823
 Alpha  occ. eigenvalues --   -0.92191  -0.89859  -0.88597  -0.88012  -0.85015
 Alpha  occ. eigenvalues --   -0.84963  -0.83648  -0.83504  -0.83300  -0.80212
 Alpha  occ. eigenvalues --   -0.79102  -0.76365  -0.75668  -0.74679  -0.70947
 Alpha  occ. eigenvalues --   -0.70193  -0.69053  -0.68737  -0.68367  -0.67990
 Alpha  occ. eigenvalues --   -0.65757  -0.64724  -0.63955  -0.63430  -0.61645
 Alpha  occ. eigenvalues --   -0.60278  -0.59404  -0.58958  -0.58366  -0.56174
 Alpha  occ. eigenvalues --   -0.55464  -0.55159  -0.55063  -0.54041  -0.53667
 Alpha  occ. eigenvalues --   -0.53436  -0.53082  -0.52355  -0.51975  -0.51728
 Alpha  occ. eigenvalues --   -0.51162  -0.51008  -0.50611  -0.50219  -0.49829
 Alpha  occ. eigenvalues --   -0.49619  -0.49451  -0.48846  -0.48364  -0.48008
 Alpha  occ. eigenvalues --   -0.47770  -0.47171  -0.46973  -0.46905  -0.45947
 Alpha  occ. eigenvalues --   -0.45863  -0.45250  -0.43963  -0.43652  -0.43423
 Alpha  occ. eigenvalues --   -0.42755  -0.42439  -0.42268  -0.41916  -0.41886
 Alpha  occ. eigenvalues --   -0.41158  -0.40831  -0.40590  -0.39921  -0.39519
 Alpha  occ. eigenvalues --   -0.39372  -0.39185  -0.38724  -0.38375  -0.37809
 Alpha  occ. eigenvalues --   -0.37357  -0.36260  -0.35911  -0.35372  -0.35110
 Alpha  occ. eigenvalues --   -0.34412  -0.33143  -0.32109  -0.31704  -0.31507
 Alpha  occ. eigenvalues --   -0.29835  -0.28885  -0.28322  -0.27524  -0.25438
 Alpha virt. eigenvalues --   -0.01022   0.00644   0.03330   0.03811   0.09092
 Alpha virt. eigenvalues --    0.10127   0.10938   0.11761   0.13006   0.13430
 Alpha virt. eigenvalues --    0.13825   0.14210   0.15189   0.15524   0.15739

 Mulliken charges:
               1
     1  C   -0.303967
     2  C   -0.304204
     3  C   -0.309788
     4  C   -0.073436
     5  C    0.062016
     6  C   -0.305278
     7  H    0.165811
     8  H    0.160903
     9  H    0.159175
    10  H    0.146634
    11  H    0.156638
    12  H    0.213132
    13  H    0.141454
    14  H    0.179833
    15  H    0.148762
    16  H    0.151200
    17  N   -0.424616
    18  C    0.100480
    19  C    0.084326
    20  C   -0.228025
    21  H    0.205511
    22  C   -0.227307
    23  H    0.264214
    24  C    0.428603
    25  H    0.188277
    26  H    0.206771
    27  N   -0.529417
    28  C   -0.156941
    29  H    0.178436
    30  H    0.199018
    31  C   -0.147345
    32  H    0.169525
    33  H    0.196391
    34  N   -0.754846
    35  S    1.249153
    36  O   -0.647107
    37  O   -0.670880
    38  C    0.048673
    39  C   -0.177233
    40  C   -0.186980
    41  C   -0.170101
    42  C   -0.162416
    43  C   -0.197436
    44  H    0.201688
    45  H    0.139605
    46  H    0.156438
    47  H    0.161775
    48  H    0.156313
    49  O   -0.710336
    50  H    0.480309
    51  C    0.643907
    52  O   -0.523665
    53  O   -0.643897
    54  H    0.485575
    55  C   -0.366878
    56  H    0.199816
    57  H    0.163874
    58  C   -0.068883
    59  H    0.128967
    60  H    0.160826
    61  C   -0.655598
    62  H    0.218257
    63  H    0.188219
    64  H    0.208180
    65  C   -0.286928
    66  H    0.143070
    67  H    0.168207
    68  C   -0.480459
    69  H    0.158276
    70  H    0.158700
    71  H    0.149652
    72  C   -0.337456
    73  H    0.183949
    74  H    0.170094
    75  C   -0.335592
    76  H    0.183003
    77  H    0.173378
 Sum of Mulliken charges =  -0.00000

 Dipole moment (field-independent basis, Debye):
    X=              1.5754    Y=             -0.4145    Z=             -6.4912  Tot=              6.6924
 Quadrupole moment (field-independent basis, Debye-Ang):
   XX=           -197.7643   YY=           -223.6239   ZZ=           -221.6132
   XY=            -12.1640   XZ=             -1.4753   YZ=             12.2806

 Normal termination of Gaussian 16 at Fri Feb  8 01:09:52 2019.
