 Gaussian 16, Revision A.03,
 Gaussian 16:  ES64L-G16RevA.03 25-Dec-2016

 ------------------------------------------
 #p M062X/6-31G* em=gd3 force int=ultrafine
 ------------------------------------------

 -----
 Title
 -----
 Symbolic Z-matrix:
 Charge =  0 Multiplicity = 1

                         Standard orientation:
 ---------------------------------------------------------------------
 Center     Atomic      Atomic             Coordinates (Angstroms)
 Number     Number       Type             X           Y           Z
 ---------------------------------------------------------------------
      1          6           0       -4.869480    0.177248   -0.448054
      2          6           0       -4.952639   -1.114831   -1.266295
      3          6           0       -3.582916   -1.479467   -1.851821
      4          6           0       -2.577651   -1.617289   -0.712645
      5          6           0       -2.444304   -0.289566    0.087279
      6          6           0       -3.821139    0.072635    0.663966
      7          1           0       -3.634498   -2.407358   -2.432988
      8          1           0       -5.301677   -1.934812   -0.625116
      9          1           0       -5.681072   -1.010866   -2.077336
     10          1           0       -4.593000    1.004586   -1.116917
     11          1           0       -5.851512    0.419405   -0.027995
     12          1           0       -2.906568   -2.405682   -0.029567
     13          1           0       -2.210613    0.478854   -0.665161
     14          1           0       -4.116991   -0.683626    1.402044
     15          1           0       -3.722431    1.031914    1.185983
     16          1           0       -3.279370   -0.672349   -2.532654
     17          7           0       -1.220606   -2.014738   -1.155893
     18          6           0       -0.596394   -1.347835   -2.154287
     19          6           0       -0.475566   -2.762736   -0.308011
     20          6           0        0.757727   -1.389853   -2.323958
     21          1           0       -1.230314   -0.753915   -2.799984
     22          6           0        0.883451   -2.849629   -0.410833
     23          1           0       -1.018548   -3.246058    0.497160
     24          6           0        1.568811   -2.080721   -1.381205
     25          1           0        1.197698   -0.837597   -3.143890
     26          1           0        1.410243   -3.417668    0.342977
     27          7           0        2.906361   -1.994834   -1.391480
     28          6           0        3.689955   -2.474724   -0.245769
     29          1           0        3.627801   -3.563652   -0.162589
     30          1           0        3.293477   -2.022479    0.674075
     31          6           0        3.612741   -0.929930   -2.120332
     32          1           0        3.875722   -1.272567   -3.128457
     33          1           0        2.976523   -0.043437   -2.187162
     34          7           0       -1.315349   -0.272871    0.991853
     35         16           0       -1.285693   -1.185658    2.281162
     36          8           0       -2.311414   -2.252205    2.288405
     37          8           0        0.104877   -1.666181    2.507358
     38          6           0       -0.982558    2.849727   -0.150016
     39          6           0       -0.322752    2.161265   -1.175195
     40          6           0       -0.908398    2.066861   -2.435718
     41          6           0       -2.168320    2.615899   -2.678683
     42          6           0       -2.841524    3.269238   -1.649382
     43          6           0       -2.245142    3.386031   -0.395903
     44          1           0        0.625757    1.668611   -0.967253
     45          1           0       -0.379106    1.556689   -3.237564
     46          1           0       -2.623480    2.535284   -3.661381
     47          1           0       -3.829298    3.687896   -1.817814
     48          1           0       -2.768965    3.892222    0.411683
     49          8           0        0.265271    1.820820    1.660495
     50          1           0       -0.291555    1.046497    1.342756
     51          6           0        2.441713    0.622393    1.183807
     52          8           0        2.096307    0.196763    0.095638
     53          8           0        2.256637   -0.032595    2.320407
     54          1           0        1.535538   -0.711964    2.217884
     55          6           0        3.187152    1.923135    1.371765
     56          1           0        2.673683    2.464831    2.172287
     57          1           0        4.195160    1.691961    1.743419
     58          6           0       -0.351133    2.994170    1.218170
     59          1           0       -1.117482    3.346208    1.928066
     60          1           0        0.426295    3.772489    1.183075
     61          6           0       -1.605247   -0.110939    3.677640
     62          1           0       -0.866600    0.693006    3.630202
     63          1           0       -2.616275    0.289037    3.578953
     64          1           0       -1.501813   -0.684834    4.599419
     65          6           0        3.250738    2.753773    0.095469
     66          1           0        3.670547    2.147826   -0.716476
     67          1           0        2.229851    3.003085   -0.215677
     68          6           0        4.068892    4.029287    0.272825
     69          1           0        4.122101    4.600413   -0.658588
     70          1           0        3.627905    4.676298    1.038386
     71          1           0        5.093538    3.798822    0.584322
     72          6           0        5.102833   -1.982181   -0.546138
     73          1           0        5.695765   -1.870915    0.363931
     74          1           0        5.615769   -2.686603   -1.208734
     75          6           0        4.851980   -0.653783   -1.263736
     76          1           0        4.605594    0.119422   -0.530881
     77          1           0        5.702045   -0.313217   -1.858457
 ---------------------------------------------------------------------

 SCF Done:  E(RM062X) =  -1991.38677471     A.U. after   15 cycles

 The electronic state is 1-A.
 Alpha  occ. eigenvalues --  -90.10298 -19.63450 -19.60135 -19.59039 -19.58470
 Alpha  occ. eigenvalues --  -19.58314 -14.84784 -14.80460 -14.69322 -10.65589
 Alpha  occ. eigenvalues --  -10.63209 -10.62411 -10.61515 -10.59126 -10.59110
 Alpha  occ. eigenvalues --  -10.58980 -10.57822 -10.57402 -10.56777 -10.56679
 Alpha  occ. eigenvalues --  -10.55985 -10.55721 -10.55570 -10.55012 -10.54948
 Alpha  occ. eigenvalues --  -10.54894 -10.54621 -10.54580 -10.54509 -10.53865
 Alpha  occ. eigenvalues --  -10.53578 -10.53539 -10.53309 -10.53270 -10.52746
 Alpha  occ. eigenvalues --  -10.52622  -8.41258  -6.33496  -6.33404  -6.33324
 Alpha  occ. eigenvalues --   -1.19179  -1.17800  -1.12923  -1.10190  -1.09909
 Alpha  occ. eigenvalues --   -1.09106  -1.06073  -0.97522  -0.95305  -0.94759
 Alpha  occ. eigenvalues --   -0.92184  -0.89831  -0.88562  -0.88211  -0.85054
 Alpha  occ. eigenvalues --   -0.84898  -0.83671  -0.83516  -0.83297  -0.80113
 Alpha  occ. eigenvalues --   -0.79272  -0.76326  -0.75630  -0.74679  -0.70934
 Alpha  occ. eigenvalues --   -0.70220  -0.69206  -0.68686  -0.68343  -0.68055
 Alpha  occ. eigenvalues --   -0.65904  -0.64739  -0.63922  -0.63449  -0.61598
 Alpha  occ. eigenvalues --   -0.60256  -0.59370  -0.59044  -0.58349  -0.56156
 Alpha  occ. eigenvalues --   -0.55508  -0.55215  -0.55111  -0.54222  -0.53772
 Alpha  occ. eigenvalues --   -0.53445  -0.53057  -0.52528  -0.51919  -0.51680
 Alpha  occ. eigenvalues --   -0.51095  -0.50966  -0.50613  -0.50073  -0.49831
 Alpha  occ. eigenvalues --   -0.49606  -0.49536  -0.48793  -0.48325  -0.47994
 Alpha  occ. eigenvalues --   -0.47806  -0.47193  -0.47039  -0.46975  -0.45880
 Alpha  occ. eigenvalues --   -0.45672  -0.45219  -0.43943  -0.43663  -0.43443
 Alpha  occ. eigenvalues --   -0.42813  -0.42682  -0.42189  -0.42025  -0.41868
 Alpha  occ. eigenvalues --   -0.41172  -0.40899  -0.40533  -0.39890  -0.39580
 Alpha  occ. eigenvalues --   -0.39362  -0.39270  -0.38922  -0.38397  -0.37987
 Alpha  occ. eigenvalues --   -0.37324  -0.36224  -0.35819  -0.35337  -0.35150
 Alpha  occ. eigenvalues --   -0.34324  -0.33047  -0.32021  -0.31651  -0.31468
 Alpha  occ. eigenvalues --   -0.29903  -0.28857  -0.28320  -0.27379  -0.25358
 Alpha virt. eigenvalues --   -0.01036   0.00671   0.03193   0.03749   0.08951
 Alpha virt. eigenvalues --    0.10171   0.10917   0.11813   0.12956   0.13551
 Alpha virt. eigenvalues --    0.13854   0.14297   0.14994   0.15480   0.15830

 Mulliken charges:
               1
     1  C   -0.303933
     2  C   -0.304186
     3  C   -0.309650
     4  C   -0.072877
     5  C    0.064912
     6  C   -0.304911
     7  H    0.166544
     8  H    0.161075
     9  H    0.159155
    10  H    0.145591
    11  H    0.156837
    12  H    0.211508
    13  H    0.141009
    14  H    0.179567
    15  H    0.150161
    16  H    0.150003
    17  N   -0.423948
    18  C    0.098599
    19  C    0.085287
    20  C   -0.227042
    21  H    0.204674
    22  C   -0.226468
    23  H    0.262910
    24  C    0.427480
    25  H    0.187806
    26  H    0.207523
    27  N   -0.527792
    28  C   -0.158400
    29  H    0.178302
    30  H    0.198639
    31  C   -0.146334
    32  H    0.169589
    33  H    0.194661
    34  N   -0.760255
    35  S    1.248969
    36  O   -0.643986
    37  O   -0.669767
    38  C    0.049309
    39  C   -0.176271
    40  C   -0.187951
    41  C   -0.169575
    42  C   -0.161339
    43  C   -0.199016
    44  H    0.204733
    45  H    0.139254
    46  H    0.156682
    47  H    0.162085
    48  H    0.157850
    49  O   -0.715660
    50  H    0.484169
    51  C    0.655326
    52  O   -0.521474
    53  O   -0.646800
    54  H    0.485024
    55  C   -0.370959
    56  H    0.202473
    57  H    0.165292
    58  C   -0.064004
    59  H    0.127404
    60  H    0.150428
    61  C   -0.660103
    62  H    0.224447
    63  H    0.186814
    64  H    0.206818
    65  C   -0.288819
    66  H    0.145244
    67  H    0.162778
    68  C   -0.480350
    69  H    0.159118
    70  H    0.158435
    71  H    0.151395
    72  C   -0.336894
    73  H    0.184430
    74  H    0.169883
    75  C   -0.335846
    76  H    0.181413
    77  H    0.173000
 Sum of Mulliken charges =  -0.00000

 Dipole moment (field-independent basis, Debye):
    X=              1.5509    Y=             -0.2223    Z=             -6.6380  Tot=              6.8204
 Quadrupole moment (field-independent basis, Debye-Ang):
   XX=           -199.0840   YY=           -222.5264   ZZ=           -222.4923
   XY=            -11.6813   XZ=             -0.2571   YZ=             12.6517

 Normal termination of Gaussian 16 at Thu Feb  7 23:04:38 2019.
