 Gaussian 16, Revision A.03,
 Gaussian 16:  ES64L-G16RevA.03 25-Dec-2016

 ------------------------------------------
 #p M062X/6-31G* em=gd3 force int=ultrafine
 ------------------------------------------

 -----
 Title
 -----
 Symbolic Z-matrix:
 Charge =  0 Multiplicity = 1

                         Standard orientation:
 ---------------------------------------------------------------------
 Center     Atomic      Atomic             Coordinates (Angstroms)
 Number     Number       Type             X           Y           Z
 ---------------------------------------------------------------------
      1          6           0       -4.804450    0.462003   -0.518688
      2          6           0       -5.009991   -0.846043   -1.288683
      3          6           0       -3.692100   -1.328419   -1.906937
      4          6           0       -2.668864   -1.517132   -0.792893
      5          6           0       -2.421793   -0.187356   -0.036123
      6          6           0       -3.735802    0.317482    0.569775
      7          1           0       -3.828138   -2.264977   -2.458153
      8          1           0       -5.393637   -1.618178   -0.608903
      9          1           0       -5.758339   -0.713202   -2.076262
     10          1           0       -4.495278    1.246485   -1.222060
     11          1           0       -5.749390    0.785914   -0.070507
     12          1           0       -3.042821   -2.258883   -0.080390
     13          1           0       -2.102961    0.550154   -0.783776
     14          1           0       -4.078577   -0.380411    1.340796
     15          1           0       -3.541670    1.284588    1.046015
     16          1           0       -3.345759   -0.566596   -2.618338
     17          7           0       -1.353294   -2.016223   -1.244837
     18          6           0       -0.672635   -1.351186   -2.216643
     19          6           0       -0.653947   -2.803983   -0.385154
     20          6           0        0.681469   -1.415622   -2.328955
     21          1           0       -1.268080   -0.732822   -2.876922
     22          6           0        0.701935   -2.906500   -0.424438
     23          1           0       -1.238759   -3.292089    0.387009
     24          6           0        1.441143   -2.111192   -1.340928
     25          1           0        1.168143   -0.857706   -3.117578
     26          1           0        1.191149   -3.493319    0.339891
     27          7           0        2.764596   -2.022657   -1.280128
     28          6           0        3.505581   -2.489084   -0.098436
     29          1           0        3.379261   -3.566891    0.036049
     30          1           0        3.125907   -1.944113    0.778296
     31          6           0        3.496300   -0.956470   -1.980368
     32          1           0        3.735484   -1.274835   -3.002546
     33          1           0        2.874337   -0.057440   -1.997316
     34          7           0       -1.298137   -0.269157    0.884804
     35         16           0       -1.334083   -1.096464    2.292401
     36          8           0       -2.556787   -1.904776    2.311624
     37          8           0       -0.055217   -1.789299    2.464548
     38          6           0       -0.559818    2.664410   -0.036485
     39          6           0       -0.086793    2.137173   -1.248498
     40          6           0       -0.861082    2.209892   -2.405211
     41          6           0       -2.124457    2.800842   -2.385601
     42          6           0       -2.606930    3.324121   -1.188932
     43          6           0       -1.826978    3.255550   -0.034189
     44          1           0        0.865971    1.618478   -1.249614
     45          1           0       -0.466864    1.806431   -3.335872
     46          1           0       -2.721282    2.859713   -3.291645
     47          1           0       -3.587560    3.790732   -1.152686
     48          1           0       -2.212738    3.676276    0.892409
     49          8           0        0.732657    1.539383    1.836707
     50          1           0       -0.327223   -0.035554    0.561037
     51          6           0        1.896283    0.812842    1.225648
     52          8           0        1.522005    0.199347    0.126185
     53          8           0        2.258090   -0.062436    2.278728
     54          1           0        1.562380   -0.744464    2.288184
     55          6           0        3.086549    1.800861    1.131902
     56          1           0        3.008926    2.518181    1.959979
     57          1           0        3.989793    1.212696    1.338683
     58          6           0        0.266413    2.723591    1.253079
     59          1           0       -0.377555    3.186619    2.012589
     60          1           0        1.096960    3.427763    1.094051
     61          6           0       -1.427116    0.138883    3.566932
     62          1           0       -0.542053    0.769107    3.442320
     63          1           0       -2.348143    0.706704    3.424051
     64          1           0       -1.431702   -0.377760    4.528149
     65          6           0        3.274704    2.538460   -0.191096
     66          1           0        3.435043    1.809517   -0.994187
     67          1           0        2.370903    3.088116   -0.473788
     68          6           0        4.451473    3.510878   -0.124249
     69          1           0        4.611873    4.025220   -1.076771
     70          1           0        4.278082    4.273419    0.643464
     71          1           0        5.377987    2.988005    0.139504
     72          6           0        4.941489   -2.092800   -0.421323
     73          1           0        5.556493   -2.020689    0.477416
     74          1           0        5.394283   -2.826321   -1.097732
     75          6           0        4.749398   -0.748059   -1.125220
     76          1           0        4.532032    0.018222   -0.376427
     77          1           0        5.610824   -0.432992   -1.717767
 ---------------------------------------------------------------------

 SCF Done:  E(RM062X) =  -1991.35783704     A.U. after   14 cycles

 The electronic state is 1-A.
 Alpha  occ. eigenvalues --  -90.14340 -19.61928 -19.61887 -19.58592 -19.56650
 Alpha  occ. eigenvalues --  -19.51025 -14.85229 -14.80402 -14.76116 -10.63408
 Alpha  occ. eigenvalues --  -10.62788 -10.62251 -10.62122 -10.60828 -10.59497
 Alpha  occ. eigenvalues --  -10.58310 -10.57994 -10.57959 -10.57186 -10.56902
 Alpha  occ. eigenvalues --  -10.56751 -10.55720 -10.55684 -10.55062 -10.54877
 Alpha  occ. eigenvalues --  -10.54871 -10.54760 -10.54708 -10.54608 -10.54423
 Alpha  occ. eigenvalues --  -10.54410 -10.54347 -10.53027 -10.51387 -10.51348
 Alpha  occ. eigenvalues --  -10.49587  -8.45316  -6.37536  -6.37509  -6.37351
 Alpha  occ. eigenvalues --   -1.22155  -1.13614  -1.13379  -1.10407  -1.09306
 Alpha  occ. eigenvalues --   -1.05807  -1.01932  -0.99226  -0.95805  -0.95007
 Alpha  occ. eigenvalues --   -0.93536  -0.90322  -0.88761  -0.86035  -0.85653
 Alpha  occ. eigenvalues --   -0.84835  -0.84753  -0.84160  -0.83068  -0.82793
 Alpha  occ. eigenvalues --   -0.76690  -0.76166  -0.75813  -0.74305  -0.72902
 Alpha  occ. eigenvalues --   -0.71716  -0.68320  -0.68187  -0.67934  -0.67294
 Alpha  occ. eigenvalues --   -0.66703  -0.65276  -0.64856  -0.63532  -0.60524
 Alpha  occ. eigenvalues --   -0.60399  -0.59744  -0.59230  -0.57787  -0.57649
 Alpha  occ. eigenvalues --   -0.57234  -0.56462  -0.55813  -0.55157  -0.54227
 Alpha  occ. eigenvalues --   -0.53592  -0.52715  -0.52535  -0.52502  -0.51925
 Alpha  occ. eigenvalues --   -0.51569  -0.50971  -0.50601  -0.49909  -0.49475
 Alpha  occ. eigenvalues --   -0.49158  -0.48893  -0.48213  -0.48131  -0.47938
 Alpha  occ. eigenvalues --   -0.47727  -0.47505  -0.46966  -0.46374  -0.46087
 Alpha  occ. eigenvalues --   -0.44934  -0.44736  -0.44202  -0.43835  -0.43274
 Alpha  occ. eigenvalues --   -0.42567  -0.42170  -0.41334  -0.41244  -0.41044
 Alpha  occ. eigenvalues --   -0.40891  -0.40532  -0.39988  -0.39767  -0.39244
 Alpha  occ. eigenvalues --   -0.39229  -0.39097  -0.38414  -0.38062  -0.37666
 Alpha  occ. eigenvalues --   -0.37363  -0.36732  -0.36508  -0.35835  -0.34930
 Alpha  occ. eigenvalues --   -0.34401  -0.34039  -0.31695  -0.31191  -0.29790
 Alpha  occ. eigenvalues --   -0.28868  -0.28606  -0.27692  -0.24608  -0.24237
 Alpha virt. eigenvalues --   -0.01513   0.00381   0.03516   0.03727   0.10120
 Alpha virt. eigenvalues --    0.10884   0.11591   0.12284   0.13143   0.13429
 Alpha virt. eigenvalues --    0.14224   0.14457   0.14747   0.15242   0.15593

 Mulliken charges:
               1
     1  C   -0.306303
     2  C   -0.307299
     3  C   -0.309222
     4  C   -0.060073
     5  C    0.055734
     6  C   -0.310795
     7  H    0.174370
     8  H    0.163021
     9  H    0.165866
    10  H    0.150694
    11  H    0.163909
    12  H    0.208761
    13  H    0.173847
    14  H    0.194268
    15  H    0.163397
    16  H    0.154772
    17  N   -0.431680
    18  C    0.067981
    19  C    0.065151
    20  C   -0.201649
    21  H    0.205997
    22  C   -0.210064
    23  H    0.244388
    24  C    0.446413
    25  H    0.192355
    26  H    0.211333
    27  N   -0.525006
    28  C   -0.169717
    29  H    0.169474
    30  H    0.227301
    31  C   -0.153928
    32  H    0.164242
    33  H    0.207192
    34  N   -0.812009
    35  S    1.251020
    36  O   -0.609619
    37  O   -0.603658
    38  C    0.080066
    39  C   -0.187304
    40  C   -0.190348
    41  C   -0.171976
    42  C   -0.163993
    43  C   -0.211349
    44  H    0.216394
    45  H    0.140313
    46  H    0.154963
    47  H    0.158558
    48  H    0.152333
    49  O   -0.554327
    50  H    0.446287
    51  C    0.721813
    52  O   -0.719604
    53  O   -0.717185
    54  H    0.442041
    55  C   -0.338074
    56  H    0.147538
    57  H    0.150943
    58  C   -0.088676
    59  H    0.138456
    60  H    0.148419
    61  C   -0.663692
    62  H    0.275854
    63  H    0.196736
    64  H    0.218106
    65  C   -0.290541
    66  H    0.133679
    67  H    0.145500
    68  C   -0.473282
    69  H    0.148568
    70  H    0.153238
    71  H    0.146379
    72  C   -0.332260
    73  H    0.186620
    74  H    0.162520
    75  C   -0.342512
    76  H    0.198832
    77  H    0.170501
 Sum of Mulliken charges =  -0.00000

 Dipole moment (field-independent basis, Debye):
    X=             -2.8020    Y=             -2.0725    Z=             -6.2418  Tot=              7.1489
 Quadrupole moment (field-independent basis, Debye-Ang):
   XX=           -206.3556   YY=           -222.1151   ZZ=           -220.1698
   XY=            -12.6484   XZ=             -4.9600   YZ=             10.1781

 Normal termination of Gaussian 16 at Thu Feb  7 13:25:57 2019.
