 Gaussian 16, Revision A.03,
 Gaussian 16:  ES64L-G16RevA.03 25-Dec-2016

 ------------------------------------------
 #p M062X/6-31G* em=gd3 force int=ultrafine
 ------------------------------------------

 -----
 Title
 -----
 Symbolic Z-matrix:
 Charge =  0 Multiplicity = 1

                         Standard orientation:
 ---------------------------------------------------------------------
 Center     Atomic      Atomic             Coordinates (Angstroms)
 Number     Number       Type             X           Y           Z
 ---------------------------------------------------------------------
      1          6           0       -4.783598    0.436942   -0.523751
      2          6           0       -4.982567   -0.853508   -1.324459
      3          6           0       -3.661499   -1.317232   -1.950689
      4          6           0       -2.642066   -1.528290   -0.837426
      5          6           0       -2.398260   -0.213235   -0.052753
      6          6           0       -3.715328    0.272735    0.562135
      7          1           0       -3.793708   -2.241191   -2.523716
      8          1           0       -5.364864   -1.642688   -0.663757
      9          1           0       -5.729716   -0.704674   -2.110292
     10          1           0       -4.477084    1.238755   -1.208185
     11          1           0       -5.730347    0.746372   -0.069168
     12          1           0       -3.018663   -2.284028   -0.141382
     13          1           0       -2.081524    0.540429   -0.785032
     14          1           0       -4.055842   -0.444071    1.316909
     15          1           0       -3.526309    1.229950    1.059703
     16          1           0       -3.315483   -0.537975   -2.643188
     17          7           0       -1.323788   -2.017754   -1.291963
     18          6           0       -0.640311   -1.336157   -2.249815
     19          6           0       -0.625428   -2.810851   -0.435945
     20          6           0        0.715454   -1.387414   -2.350038
     21          1           0       -1.235267   -0.716446   -2.909419
     22          6           0        0.731834   -2.897743   -0.460891
     23          1           0       -1.213777   -3.315836    0.322599
     24          6           0        1.471506   -2.081983   -1.358422
     25          1           0        1.203940   -0.818173   -3.129228
     26          1           0        1.219292   -3.489198    0.301013
     27          7           0        2.792751   -1.974257   -1.277856
     28          6           0        3.524619   -2.424314   -0.083849
     29          1           0        3.410231   -3.502728    0.055947
     30          1           0        3.126832   -1.879349    0.784925
     31          6           0        3.518262   -0.903323   -1.975114
     32          1           0        3.763558   -1.219933   -2.996293
     33          1           0        2.887003   -0.011001   -1.999451
     34          7           0       -1.275304   -0.312578    0.866411
     35         16           0       -1.323764   -1.159682    2.258891
     36          8           0       -2.526944   -1.997769    2.246082
     37          8           0       -0.032461   -1.825723    2.447518
     38          6           0       -0.597092    2.686120    0.027865
     39          6           0       -0.124792    2.196058   -1.200036
     40          6           0       -0.907492    2.286179   -2.349580
     41          6           0       -2.179099    2.858389   -2.306773
     42          6           0       -2.661515    3.343447   -1.094369
     43          6           0       -1.872649    3.257713    0.053176
     44          1           0        0.834586    1.691336   -1.222637
     45          1           0       -0.514046    1.911975   -3.292557
     46          1           0       -2.782824    2.931615   -3.207202
     47          1           0       -3.648774    3.794061   -1.039938
     48          1           0       -2.257566    3.650582    0.992275
     49          8           0        0.708932    1.546119    1.883642
     50          1           0       -0.295740   -0.065590    0.551462
     51          6           0        1.854260    0.823191    1.248940
     52          8           0        1.457684    0.214096    0.150683
     53          8           0        2.237839   -0.059032    2.288085
     54          1           0        1.546229   -0.744699    2.305903
     55          6           0        3.051342    1.803239    1.133674
     56          1           0        2.995865    2.518536    1.963656
     57          1           0        3.949842    1.203426    1.324495
     58          6           0        0.240672    2.734748    1.309715
     59          1           0       -0.393367    3.196032    2.078219
     60          1           0        1.072542    3.435958    1.145760
     61          6           0       -1.471876    0.052919    3.550117
     62          1           0       -0.602545    0.708762    3.450235
     63          1           0       -2.405018    0.598334    3.398750
     64          1           0       -1.479961   -0.477114    4.503961
     65          6           0        3.227807    2.538790   -0.191647
     66          1           0        3.276604    1.806543   -1.005703
     67          1           0        2.361225    3.168418   -0.418440
     68          6           0        4.487611    3.403003   -0.190307
     69          1           0        4.627725    3.920737   -1.144250
     70          1           0        4.436198    4.161268    0.598526
     71          1           0        5.379623    2.794688   -0.000422
     72          6           0        4.960180   -2.014829   -0.392612
     73          1           0        5.561813   -1.924962    0.513600
     74          1           0        5.430353   -2.751751   -1.053107
     75          6           0        4.767149   -0.680462   -1.116899
     76          1           0        4.549715    0.098438   -0.381608
     77          1           0        5.630703   -0.374077   -1.710927
 ---------------------------------------------------------------------

 SCF Done:  E(RM062X) =  -1991.35847284     A.U. after   14 cycles

 The electronic state is 1-A.
 Alpha  occ. eigenvalues --  -90.14189 -19.61793 -19.61767 -19.58688 -19.56682
 Alpha  occ. eigenvalues --  -19.51232 -14.85172 -14.80445 -14.75777 -10.63419
 Alpha  occ. eigenvalues --  -10.62787 -10.62234 -10.62198 -10.60733 -10.59358
 Alpha  occ. eigenvalues --  -10.58442 -10.57999 -10.57954 -10.57162 -10.56901
 Alpha  occ. eigenvalues --  -10.56694 -10.55663 -10.55612 -10.55110 -10.54844
 Alpha  occ. eigenvalues --  -10.54824 -10.54795 -10.54728 -10.54577 -10.54405
 Alpha  occ. eigenvalues --  -10.54329 -10.54327 -10.53072 -10.51499 -10.51446
 Alpha  occ. eigenvalues --  -10.49679  -8.45166  -6.37383  -6.37360  -6.37202
 Alpha  occ. eigenvalues --   -1.22012  -1.13595  -1.13497  -1.10269  -1.09345
 Alpha  occ. eigenvalues --   -1.05874  -1.01747  -0.99297  -0.95748  -0.94992
 Alpha  occ. eigenvalues --   -0.93497  -0.90303  -0.88755  -0.85915  -0.85773
 Alpha  occ. eigenvalues --   -0.84827  -0.84713  -0.84230  -0.83058  -0.82704
 Alpha  occ. eigenvalues --   -0.76668  -0.76271  -0.75831  -0.74370  -0.72797
 Alpha  occ. eigenvalues --   -0.71652  -0.68327  -0.68226  -0.67940  -0.67213
 Alpha  occ. eigenvalues --   -0.66746  -0.65234  -0.64869  -0.63526  -0.60557
 Alpha  occ. eigenvalues --   -0.60403  -0.59784  -0.59035  -0.57804  -0.57599
 Alpha  occ. eigenvalues --   -0.57180  -0.56438  -0.55786  -0.55172  -0.54199
 Alpha  occ. eigenvalues --   -0.53552  -0.52662  -0.52466  -0.52441  -0.51908
 Alpha  occ. eigenvalues --   -0.51551  -0.51019  -0.50744  -0.49879  -0.49552
 Alpha  occ. eigenvalues --   -0.49164  -0.48839  -0.48207  -0.48139  -0.48012
 Alpha  occ. eigenvalues --   -0.47677  -0.47467  -0.46914  -0.46430  -0.46103
 Alpha  occ. eigenvalues --   -0.44883  -0.44739  -0.44148  -0.43865  -0.43261
 Alpha  occ. eigenvalues --   -0.42516  -0.42140  -0.41400  -0.41319  -0.41111
 Alpha  occ. eigenvalues --   -0.40904  -0.40485  -0.39991  -0.39809  -0.39307
 Alpha  occ. eigenvalues --   -0.39255  -0.39070  -0.38441  -0.37965  -0.37598
 Alpha  occ. eigenvalues --   -0.37390  -0.36746  -0.36556  -0.35748  -0.34908
 Alpha  occ. eigenvalues --   -0.34390  -0.33970  -0.31666  -0.31102  -0.29775
 Alpha  occ. eigenvalues --   -0.28881  -0.28604  -0.27649  -0.24828  -0.24391
 Alpha virt. eigenvalues --   -0.01523   0.00404   0.03548   0.03752   0.10138
 Alpha virt. eigenvalues --    0.10988   0.11652   0.12207   0.13173   0.13506
 Alpha virt. eigenvalues --    0.14216   0.14591   0.14757   0.15228   0.15599

 Mulliken charges:
               1
     1  C   -0.306271
     2  C   -0.307131
     3  C   -0.309242
     4  C   -0.060158
     5  C    0.056648
     6  C   -0.311491
     7  H    0.173985
     8  H    0.162831
     9  H    0.165513
    10  H    0.151036
    11  H    0.163345
    12  H    0.209025
    13  H    0.173038
    14  H    0.193072
    15  H    0.163579
    16  H    0.154248
    17  N   -0.430596
    18  C    0.067408
    19  C    0.063790
    20  C   -0.201822
    21  H    0.206450
    22  C   -0.209165
    23  H    0.245249
    24  C    0.445972
    25  H    0.192025
    26  H    0.211525
    27  N   -0.526087
    28  C   -0.170975
    29  H    0.169766
    30  H    0.229669
    31  C   -0.154771
    32  H    0.165708
    33  H    0.205667
    34  N   -0.815749
    35  S    1.253366
    36  O   -0.611976
    37  O   -0.606257
    38  C    0.084727
    39  C   -0.184137
    40  C   -0.189763
    41  C   -0.171157
    42  C   -0.163722
    43  C   -0.212106
    44  H    0.211299
    45  H    0.140593
    46  H    0.154922
    47  H    0.158608
    48  H    0.152482
    49  O   -0.550208
    50  H    0.448447
    51  C    0.724565
    52  O   -0.722272
    53  O   -0.718092
    54  H    0.444602
    55  C   -0.338523
    56  H    0.148858
    57  H    0.151123
    58  C   -0.091507
    59  H    0.140012
    60  H    0.147837
    61  C   -0.663297
    62  H    0.273573
    63  H    0.196330
    64  H    0.217630
    65  C   -0.292887
    66  H    0.135898
    67  H    0.146359
    68  C   -0.473338
    69  H    0.148913
    70  H    0.154573
    71  H    0.144932
    72  C   -0.331900
    73  H    0.187159
    74  H    0.162957
    75  C   -0.343216
    76  H    0.197423
    77  H    0.171077
 Sum of Mulliken charges =  -0.00000

 Dipole moment (field-independent basis, Debye):
    X=             -2.5638    Y=             -1.9194    Z=             -6.3510  Tot=              7.1128
 Quadrupole moment (field-independent basis, Debye-Ang):
   XX=           -205.7511   YY=           -222.7677   ZZ=           -219.9004
   XY=            -12.3923   XZ=             -5.3201   YZ=             10.0418

 Normal termination of Gaussian 16 at Thu Feb  7 14:48:01 2019.
