 Gaussian 16, Revision A.03,
 Gaussian 16:  ES64L-G16RevA.03 25-Dec-2016

 ------------------------------------------
 #p M062X/6-31G* em=gd3 force int=ultrafine
 ------------------------------------------

 -----
 Title
 -----
 Symbolic Z-matrix:
 Charge =  0 Multiplicity = 1

                         Standard orientation:
 ---------------------------------------------------------------------
 Center     Atomic      Atomic             Coordinates (Angstroms)
 Number     Number       Type             X           Y           Z
 ---------------------------------------------------------------------
      1          6           0       -4.782231    0.235556   -0.755579
      2          6           0       -4.882143   -1.103031   -1.493058
      3          6           0       -3.509881   -1.536953   -2.021875
      4          6           0       -2.542444   -1.641143   -0.848329
      5          6           0       -2.399102   -0.276974   -0.123841
      6          6           0       -3.770635    0.174028    0.393007
      7          1           0       -3.569217   -2.494387   -2.550701
      8          1           0       -5.265974   -1.872641   -0.810652
      9          1           0       -5.590113   -1.030698   -2.324683
     10          1           0       -4.472611    1.014034   -1.465231
     11          1           0       -5.764979    0.525227   -0.369366
     12          1           0       -2.922212   -2.375855   -0.131406
     13          1           0       -2.075409    0.452374   -0.877931
     14          1           0       -4.121762   -0.522804    1.160931
     15          1           0       -3.654588    1.160528    0.853473
     16          1           0       -3.162985   -0.778705   -2.736709
     17          7           0       -1.184773   -2.096271   -1.212208
     18          6           0       -0.499155   -1.484279   -2.212936
     19          6           0       -0.485388   -2.786792   -0.271416
     20          6           0        0.859460   -1.509286   -2.283175
     21          1           0       -1.094842   -0.948643   -2.941491
     22          6           0        0.873821   -2.828646   -0.255954
     23          1           0       -1.078358   -3.247886    0.510907
     24          6           0        1.610490   -2.082620   -1.214292
     25          1           0        1.348802   -1.005584   -3.105433
     26          1           0        1.360311   -3.330685    0.568471
     27          7           0        2.928264   -1.937069   -1.124510
     28          6           0        3.654325   -2.246927    0.117385
     29          1           0        3.558273   -3.308043    0.364132
     30          1           0        3.233917   -1.628980    0.925282
     31          6           0        3.648860   -0.949762   -1.936585
     32          1           0        3.898964   -1.378862   -2.914730
     33          1           0        3.013039   -0.070571   -2.075448
     34          7           0       -1.324468   -0.275300    0.856133
     35         16           0       -1.423156   -1.043732    2.288411
     36          8           0       -2.600451   -1.918078    2.274284
     37          8           0       -0.127367   -1.663131    2.582836
     38          6           0       -0.675667    2.711518    0.000245
     39          6           0       -0.208111    2.249038   -1.239891
     40          6           0       -1.018384    2.305460   -2.371569
     41          6           0       -2.315596    2.814170   -2.296008
     42          6           0       -2.796153    3.264549   -1.070126
     43          6           0       -1.977483    3.215111    0.058778
     44          1           0        0.773726    1.794204   -1.290076
     45          1           0       -0.629227    1.954699   -3.324835
     46          1           0       -2.942396    2.862281   -3.182298
     47          1           0       -3.804930    3.660461   -0.990242
     48          1           0       -2.359586    3.582866    1.009349
     49          8           0        0.659577    1.638404    1.874108
     50          1           0       -0.325073   -0.037849    0.555911
     51          6           0        1.769424    0.879978    1.230448
     52          8           0        1.333534    0.254967    0.154322
     53          8           0        2.168450    0.017108    2.281319
     54          1           0        1.444474   -0.629005    2.373100
     55          6           0        2.992579    1.820653    1.054986
     56          1           0        2.982546    2.563340    1.862995
     57          1           0        3.872430    1.192768    1.245374
     58          6           0        0.196921    2.807839    1.254573
     59          1           0       -0.405675    3.318282    2.016786
     60          1           0        1.038351    3.480520    1.033755
     61          6           0       -1.664966    0.240955    3.493365
     62          1           0       -0.805314    0.909740    3.395865
     63          1           0       -2.600557    0.752976    3.260588
     64          1           0       -1.710400   -0.227413    4.478173
     65          6           0        3.168603    2.501577   -0.299142
     66          1           0        3.083617    1.745243   -1.087719
     67          1           0        2.365039    3.220171   -0.494723
     68          6           0        4.512745    3.220985   -0.402983
     69          1           0        4.641074    3.703146   -1.377146
     70          1           0        4.601450    3.993414    0.368415
     71          1           0        5.345980    2.522903   -0.260122
     72          6           0        5.088344   -1.851267   -0.220027
     73          1           0        5.673295   -1.639502    0.676957
     74          1           0        5.582031   -2.655872   -0.775819
     75          6           0        4.895394   -0.619681   -1.109319
     76          1           0        4.683748    0.250511   -0.483067
     77          1           0        5.760778   -0.393990   -1.736148
 ---------------------------------------------------------------------

 SCF Done:  E(RM062X) =  -1991.35900550     A.U. after   14 cycles

 The electronic state is 1-A.
 Alpha  occ. eigenvalues --  -90.14015 -19.61627 -19.61624 -19.58827 -19.56759
 Alpha  occ. eigenvalues --  -19.51406 -14.85101 -14.80465 -14.75381 -10.63355
 Alpha  occ. eigenvalues --  -10.62721 -10.62344 -10.62011 -10.60625 -10.59168
 Alpha  occ. eigenvalues --  -10.58813 -10.57865 -10.57857 -10.57013 -10.56842
 Alpha  occ. eigenvalues --  -10.56648 -10.55591 -10.55582 -10.55244 -10.55136
 Alpha  occ. eigenvalues --  -10.54691 -10.54687 -10.54574 -10.54407 -10.54263
 Alpha  occ. eigenvalues --  -10.54184 -10.54123 -10.53073 -10.51714 -10.51604
 Alpha  occ. eigenvalues --  -10.49831  -8.44994  -6.37208  -6.37188  -6.37032
 Alpha  occ. eigenvalues --   -1.21845  -1.13690  -1.13426  -1.10088  -1.09365
 Alpha  occ. eigenvalues --   -1.05909  -1.01538  -0.99449  -0.95650  -0.94867
 Alpha  occ. eigenvalues --   -0.93444  -0.90196  -0.88758  -0.85942  -0.85795
 Alpha  occ. eigenvalues --   -0.84740  -0.84606  -0.84374  -0.82952  -0.82568
 Alpha  occ. eigenvalues --   -0.76626  -0.76388  -0.75824  -0.74377  -0.72672
 Alpha  occ. eigenvalues --   -0.71529  -0.68368  -0.68297  -0.67866  -0.67117
 Alpha  occ. eigenvalues --   -0.66740  -0.65153  -0.64853  -0.63519  -0.60565
 Alpha  occ. eigenvalues --   -0.60404  -0.59788  -0.58770  -0.57867  -0.57511
 Alpha  occ. eigenvalues --   -0.57100  -0.56407  -0.55650  -0.55164  -0.54164
 Alpha  occ. eigenvalues --   -0.53403  -0.52606  -0.52369  -0.52320  -0.51819
 Alpha  occ. eigenvalues --   -0.51498  -0.51109  -0.50950  -0.49834  -0.49581
 Alpha  occ. eigenvalues --   -0.49161  -0.48791  -0.48217  -0.48105  -0.48041
 Alpha  occ. eigenvalues --   -0.47596  -0.47406  -0.46881  -0.46466  -0.46079
 Alpha  occ. eigenvalues --   -0.44942  -0.44622  -0.44041  -0.43856  -0.43238
 Alpha  occ. eigenvalues --   -0.42407  -0.42064  -0.41627  -0.41455  -0.41226
 Alpha  occ. eigenvalues --   -0.40866  -0.40420  -0.40022  -0.39876  -0.39580
 Alpha  occ. eigenvalues --   -0.39221  -0.39031  -0.38392  -0.37842  -0.37574
 Alpha  occ. eigenvalues --   -0.37326  -0.36732  -0.36548  -0.35655  -0.34866
 Alpha  occ. eigenvalues --   -0.34320  -0.33851  -0.31803  -0.30917  -0.29652
 Alpha  occ. eigenvalues --   -0.28874  -0.28477  -0.27513  -0.25006  -0.24542
 Alpha virt. eigenvalues --   -0.01333   0.00553   0.03685   0.03914   0.10277
 Alpha virt. eigenvalues --    0.11075   0.11487   0.12052   0.13212   0.13522
 Alpha virt. eigenvalues --    0.14266   0.14687   0.14860   0.15442   0.15608

 Mulliken charges:
               1
     1  C   -0.306041
     2  C   -0.306786
     3  C   -0.310736
     4  C   -0.058537
     5  C    0.056257
     6  C   -0.311502
     7  H    0.173747
     8  H    0.162986
     9  H    0.164919
    10  H    0.150116
    11  H    0.162793
    12  H    0.208268
    13  H    0.172097
    14  H    0.194181
    15  H    0.163224
    16  H    0.153442
    17  N   -0.433890
    18  C    0.071337
    19  C    0.066014
    20  C   -0.206888
    21  H    0.207286
    22  C   -0.210039
    23  H    0.245846
    24  C    0.454254
    25  H    0.190451
    26  H    0.211728
    27  N   -0.531497
    28  C   -0.178930
    29  H    0.169995
    30  H    0.240826
    31  C   -0.154279
    32  H    0.169176
    33  H    0.199757
    34  N   -0.817517
    35  S    1.254415
    36  O   -0.611118
    37  O   -0.610190
    38  C    0.094505
    39  C   -0.175920
    40  C   -0.188490
    41  C   -0.170103
    42  C   -0.163549
    43  C   -0.211995
    44  H    0.200508
    45  H    0.142010
    46  H    0.154228
    47  H    0.157747
    48  H    0.151387
    49  O   -0.547656
    50  H    0.449976
    51  C    0.729041
    52  O   -0.724227
    53  O   -0.718226
    54  H    0.446049
    55  C   -0.337061
    56  H    0.150684
    57  H    0.146442
    58  C   -0.096458
    59  H    0.141476
    60  H    0.146468
    61  C   -0.662428
    62  H    0.269259
    63  H    0.196312
    64  H    0.217230
    65  C   -0.295842
    66  H    0.142367
    67  H    0.147254
    68  C   -0.476972
    69  H    0.149724
    70  H    0.156578
    71  H    0.144230
    72  C   -0.332073
    73  H    0.187461
    74  H    0.164092
    75  C   -0.344845
    76  H    0.193270
    77  H    0.172384
 Sum of Mulliken charges =  -0.00000

 Dipole moment (field-independent basis, Debye):
    X=             -1.8416    Y=             -2.1207    Z=             -6.4909  Tot=              7.0725
 Quadrupole moment (field-independent basis, Debye-Ang):
   XX=           -204.1382   YY=           -222.9168   ZZ=           -220.2544
   XY=            -12.1092   XZ=             -4.8855   YZ=             10.4709

 Normal termination of Gaussian 16 at Thu Feb  7 18:24:18 2019.
