 Gaussian 16, Revision A.03,
 Gaussian 16:  ES64L-G16RevA.03 25-Dec-2016

 ------------------------------------------
 #p M062X/6-31G* em=gd3 force int=ultrafine
 ------------------------------------------

 -----
 Title
 -----
 Symbolic Z-matrix:
 Charge =  0 Multiplicity = 1

                         Standard orientation:
 ---------------------------------------------------------------------
 Center     Atomic      Atomic             Coordinates (Angstroms)
 Number     Number       Type             X           Y           Z
 ---------------------------------------------------------------------
      1          6           0       -4.785959    0.445234   -0.518739
      2          6           0       -4.989200   -0.848747   -1.312639
      3          6           0       -3.670407   -1.318018   -1.939448
      4          6           0       -2.648680   -1.525595   -0.827579
      5          6           0       -2.401361   -0.207848   -0.048663
      6          6           0       -3.716300    0.283734    0.566191
      7          1           0       -3.805553   -2.244585   -2.507569
      8          1           0       -5.371564   -1.633886   -0.647185
      9          1           0       -5.737797   -0.702430   -2.097577
     10          1           0       -4.478710    1.242949   -1.207683
     11          1           0       -5.731248    0.759117   -0.064157
     12          1           0       -3.024458   -2.278213   -0.127712
     13          1           0       -2.084184    0.542192   -0.784496
     14          1           0       -4.057161   -0.428749    1.324864
     15          1           0       -3.524224    1.242795    1.059054
     16          1           0       -3.324539   -0.542930   -2.636671
     17          7           0       -1.332012   -2.018220   -1.283521
     18          6           0       -0.649152   -1.338744   -2.243468
     19          6           0       -0.633364   -2.811443   -0.427967
     20          6           0        0.706299   -1.392315   -2.346195
     21          1           0       -1.244324   -0.718456   -2.902324
     22          6           0        0.723682   -2.901709   -0.456260
     23          1           0       -1.220904   -3.313704    0.333010
     24          6           0        1.463179   -2.088634   -1.356429
     25          1           0        1.194425   -0.824141   -3.126430
     26          1           0        1.211557   -3.493325    0.305243
     27          7           0        2.784903   -1.984633   -1.279886
     28          6           0        3.519232   -2.440339   -0.089668
     29          1           0        3.401999   -3.518805    0.047338
     30          1           0        3.126069   -1.896627    0.781966
     31          6           0        3.511047   -0.912685   -1.975470
     32          1           0        3.754047   -1.226748   -2.997987
     33          1           0        2.881444   -0.019066   -1.994963
     34          7           0       -1.277289   -0.305487    0.869466
     35         16           0       -1.323417   -1.148975    2.264461
     36          8           0       -2.530573   -1.981301    2.258258
     37          8           0       -0.034455   -1.820432    2.449721
     38          6           0       -0.588627    2.682354    0.015151
     39          6           0       -0.116622    2.184644   -1.209812
     40          6           0       -0.897814    2.271882   -2.360660
     41          6           0       -2.167662    2.848331   -2.322055
     42          6           0       -2.649681    3.341133   -1.112559
     43          6           0       -1.862318    3.258429    0.036244
     44          1           0        0.841230    1.676593   -1.228566
     45          1           0       -0.504531    1.891806   -3.301392
     46          1           0       -2.770186    2.919023   -3.223479
     47          1           0       -3.635533    3.795294   -1.061314
     48          1           0       -2.247035    3.656931    0.973112
     49          8           0        0.714436    1.545205    1.874256
     50          1           0       -0.299245   -0.060764    0.553366
     51          6           0        1.863730    0.820324    1.243764
     52          8           0        1.471437    0.210929    0.145401
     53          8           0        2.242819   -0.060417    2.285485
     54          1           0        1.549717   -0.745388    2.302390
     55          6           0        3.058547    1.802284    1.132815
     56          1           0        2.998288    2.518058    1.962329
     57          1           0        3.958160    1.205603    1.327271
     58          6           0        0.246905    2.732970    1.298461
     59          1           0       -0.388837    3.194939    2.065214
     60          1           0        1.078751    3.434463    1.135413
     61          6           0       -1.460848    0.067915    3.552885
     62          1           0       -0.588131    0.718642    3.448849
     63          1           0       -2.391408    0.618136    3.402808
     64          1           0       -1.469110   -0.459684    4.508096
     65          6           0        3.237759    2.538525   -0.191851
     66          1           0        3.315811    1.806783   -1.003618
     67          1           0        2.360633    3.148403   -0.432545
     68          6           0        4.477334    3.431433   -0.173340
     69          1           0        4.622490    3.947514   -1.127440
     70          1           0        4.393598    4.192096    0.609926
     71          1           0        5.379415    2.845489    0.036050
     72          6           0        4.954782   -2.033592   -0.401846
     73          1           0        5.560322   -1.949948    0.502339
     74          1           0        5.420129   -2.768476   -1.068036
     75          6           0        4.761692   -0.695234   -1.118484
     76          1           0        4.545264    0.079317   -0.378239
     77          1           0        5.624332   -0.385852   -1.712272
 ---------------------------------------------------------------------

 SCF Done:  E(RM062X) =  -1991.35834887     A.U. after   14 cycles

 The electronic state is 1-A.
 Alpha  occ. eigenvalues --  -90.14220 -19.61821 -19.61794 -19.58651 -19.56684
 Alpha  occ. eigenvalues --  -19.51199 -14.85184 -14.80439 -14.75852 -10.63421
 Alpha  occ. eigenvalues --  -10.62789 -10.62215 -10.62211 -10.60753 -10.59392
 Alpha  occ. eigenvalues --  -10.58409 -10.58003 -10.57960 -10.57173 -10.56893
 Alpha  occ. eigenvalues --  -10.56706 -10.55675 -10.55622 -10.55102 -10.54851
 Alpha  occ. eigenvalues --  -10.54813 -10.54800 -10.54736 -10.54585 -10.54408
 Alpha  occ. eigenvalues --  -10.54348 -10.54331 -10.53066 -10.51466 -10.51423
 Alpha  occ. eigenvalues --  -10.49653  -8.45197  -6.37414  -6.37391  -6.37233
 Alpha  occ. eigenvalues --   -1.22042  -1.13592  -1.13469  -1.10296  -1.09339
 Alpha  occ. eigenvalues --   -1.05854  -1.01792  -0.99300  -0.95763  -0.94995
 Alpha  occ. eigenvalues --   -0.93507  -0.90310  -0.88757  -0.85937  -0.85753
 Alpha  occ. eigenvalues --   -0.84826  -0.84723  -0.84216  -0.83061  -0.82721
 Alpha  occ. eigenvalues --   -0.76674  -0.76254  -0.75830  -0.74349  -0.72820
 Alpha  occ. eigenvalues --   -0.71667  -0.68328  -0.68218  -0.67940  -0.67230
 Alpha  occ. eigenvalues --   -0.66738  -0.65241  -0.64868  -0.63530  -0.60547
 Alpha  occ. eigenvalues --   -0.60404  -0.59774  -0.59079  -0.57803  -0.57609
 Alpha  occ. eigenvalues --   -0.57192  -0.56444  -0.55797  -0.55171  -0.54207
 Alpha  occ. eigenvalues --   -0.53564  -0.52668  -0.52480  -0.52458  -0.51908
 Alpha  occ. eigenvalues --   -0.51556  -0.51009  -0.50711  -0.49887  -0.49536
 Alpha  occ. eigenvalues --   -0.49164  -0.48849  -0.48209  -0.48141  -0.47995
 Alpha  occ. eigenvalues --   -0.47687  -0.47476  -0.46923  -0.46423  -0.46103
 Alpha  occ. eigenvalues --   -0.44887  -0.44742  -0.44158  -0.43862  -0.43265
 Alpha  occ. eigenvalues --   -0.42529  -0.42151  -0.41386  -0.41301  -0.41097
 Alpha  occ. eigenvalues --   -0.40905  -0.40495  -0.39991  -0.39799  -0.39288
 Alpha  occ. eigenvalues --   -0.39251  -0.39079  -0.38435  -0.37986  -0.37609
 Alpha  occ. eigenvalues --   -0.37392  -0.36745  -0.36552  -0.35766  -0.34913
 Alpha  occ. eigenvalues --   -0.34392  -0.33987  -0.31669  -0.31127  -0.29777
 Alpha  occ. eigenvalues --   -0.28874  -0.28605  -0.27660  -0.24789  -0.24368
 Alpha virt. eigenvalues --   -0.01529   0.00395   0.03541   0.03745   0.10133
 Alpha virt. eigenvalues --    0.10969   0.11646   0.12228   0.13164   0.13492
 Alpha virt. eigenvalues --    0.14222   0.14565   0.14755   0.15223   0.15599

 Mulliken charges:
               1
     1  C   -0.306290
     2  C   -0.307172
     3  C   -0.309181
     4  C   -0.060302
     5  C    0.056465
     6  C   -0.311362
     7  H    0.174073
     8  H    0.162881
     9  H    0.165586
    10  H    0.150996
    11  H    0.163459
    12  H    0.209105
    13  H    0.173219
    14  H    0.193229
    15  H    0.163594
    16  H    0.154345
    17  N   -0.430659
    18  C    0.067337
    19  C    0.063954
    20  C   -0.201595
    21  H    0.206359
    22  C   -0.209322
    23  H    0.245083
    24  C    0.445858
    25  H    0.192148
    26  H    0.211500
    27  N   -0.525813
    28  C   -0.170648
    29  H    0.169728
    30  H    0.229083
    31  C   -0.154781
    32  H    0.165341
    33  H    0.206298
    34  N   -0.815107
    35  S    1.252957
    36  O   -0.611634
    37  O   -0.605867
    38  C    0.083882
    39  C   -0.184955
    40  C   -0.189859
    41  C   -0.171355
    42  C   -0.163734
    43  C   -0.212039
    44  H    0.212443
    45  H    0.140529
    46  H    0.154937
    47  H    0.158608
    48  H    0.152476
    49  O   -0.551402
    50  H    0.448256
    51  C    0.724043
    52  O   -0.721403
    53  O   -0.717970
    54  H    0.444252
    55  C   -0.338561
    56  H    0.148614
    57  H    0.151201
    58  C   -0.090801
    59  H    0.139657
    60  H    0.147831
    61  C   -0.663345
    62  H    0.274023
    63  H    0.196359
    64  H    0.217670
    65  C   -0.292280
    66  H    0.135115
    67  H    0.146154
    68  C   -0.473298
    69  H    0.148800
    70  H    0.154344
    71  H    0.145336
    72  C   -0.331940
    73  H    0.187021
    74  H    0.162873
    75  C   -0.343049
    76  H    0.197715
    77  H    0.170985
 Sum of Mulliken charges =  -0.00000

 Dipole moment (field-independent basis, Debye):
    X=             -2.6185    Y=             -1.9542    Z=             -6.3306  Tot=              7.1240
 Quadrupole moment (field-independent basis, Debye-Ang):
   XX=           -205.8701   YY=           -222.6439   ZZ=           -219.9723
   XY=            -12.4498   XZ=             -5.2574   YZ=             10.0602

 Normal termination of Gaussian 16 at Thu Feb  7 14:28:19 2019.
