 Gaussian 16, Revision A.03,
 Gaussian 16:  ES64L-G16RevA.03 25-Dec-2016

 ------------------------------------------
 #p M062X/6-31G* em=gd3 force int=ultrafine
 ------------------------------------------

 -----
 Title
 -----
 Symbolic Z-matrix:
 Charge =  0 Multiplicity = 1

                         Standard orientation:
 ---------------------------------------------------------------------
 Center     Atomic      Atomic             Coordinates (Angstroms)
 Number     Number       Type             X           Y           Z
 ---------------------------------------------------------------------
      1          6           0       -4.844666    0.399856   -0.508985
      2          6           0       -4.982851   -0.872308   -1.350339
      3          6           0       -3.627989   -1.282823   -1.939531
      4          6           0       -2.636985   -1.501515   -0.800478
      5          6           0       -2.457918   -0.212212    0.043485
      6          6           0       -3.815422    0.223566    0.612328
      7          1           0       -3.715582   -2.190425   -2.547035
      8          1           0       -5.369154   -1.688434   -0.725663
      9          1           0       -5.703506   -0.721646   -2.160658
     10          1           0       -4.525323    1.225623   -1.159828
     11          1           0       -5.816325    0.679720   -0.088672
     12          1           0       -3.005619   -2.298844   -0.147471
     13          1           0       -2.140154    0.569589   -0.660927
     14          1           0       -4.164886   -0.521620    1.336108
     15          1           0       -3.667394    1.170638    1.144403
     16          1           0       -3.282724   -0.470828   -2.593826
     17          7           0       -1.292869   -1.937016   -1.246364
     18          6           0       -0.631494   -1.253245   -2.211859
     19          6           0       -0.580452   -2.735149   -0.413551
     20          6           0        0.722744   -1.323634   -2.358266
     21          1           0       -1.235941   -0.618247   -2.846582
     22          6           0        0.776708   -2.849047   -0.490587
     23          1           0       -1.150510   -3.242075    0.357413
     24          6           0        1.500835   -2.061409   -1.421328
     25          1           0        1.191372   -0.750231   -3.147185
     26          1           0        1.275484   -3.457516    0.250653
     27          7           0        2.835979   -2.004065   -1.402734
     28          6           0        3.586721   -2.514701   -0.246616
     29          1           0        3.479764   -3.599484   -0.162293
     30          1           0        3.199788   -2.035836    0.663901
     31          6           0        3.578634   -0.932524   -2.088856
     32          1           0        3.847079   -1.252514   -3.102594
     33          1           0        2.965168   -0.029188   -2.132089
     34          7           0       -1.348512   -0.324618    0.972557
     35         16           0       -1.390886   -1.224924    2.308800
     36          8           0       -2.552918   -2.126517    2.281161
     37          8           0       -0.066717   -1.853406    2.487837
     38          6           0       -0.717196    2.764006   -0.065737
     39          6           0       -0.148662    2.119020   -1.173733
     40          6           0       -0.799608    2.148019   -2.405448
     41          6           0       -2.039313    2.776838   -2.540298
     42          6           0       -2.618490    3.392944   -1.433598
     43          6           0       -1.953000    3.388023   -0.210335
     44          1           0        0.780239    1.564292   -1.047629
     45          1           0       -0.341234    1.672922   -3.271288
     46          1           0       -2.548414    2.791450   -3.499320
     47          1           0       -3.586236    3.877839   -1.516898
     48          1           0       -2.399535    3.860869    0.661233
     49          8           0        0.316745    1.421663    1.627741
     50          1           0       -0.530577    0.541377    1.136267
     51          6           0        2.319755    0.604321    1.172913
     52          8           0        2.069325    0.153759    0.064848
     53          8           0        2.243713   -0.135388    2.288968
     54          1           0        1.532412   -0.805845    2.177349
     55          6           0        3.095821    1.884461    1.390419
     56          1           0        2.636782    2.461357    2.200223
     57          1           0        4.078362    1.560494    1.761431
     58          6           0       -0.050495    2.703590    1.296284
     59          1           0       -0.745950    3.139669    2.038685
     60          1           0        0.824260    3.387577    1.287996
     61          6           0       -1.536224   -0.062983    3.655851
     62          1           0       -0.710711    0.641842    3.511594
     63          1           0       -2.500486    0.441959    3.576685
     64          1           0       -1.450636   -0.605153    4.598603
     65          6           0        3.278730    2.724285    0.128754
     66          1           0        3.664251    2.084336   -0.673541
     67          1           0        2.310633    3.094788   -0.226624
     68          6           0        4.227758    3.898161    0.362241
     69          1           0        4.391822    4.471512   -0.555002
     70          1           0        3.829437    4.583526    1.118087
     71          1           0        5.202901    3.546667    0.717275
     72          6           0        5.017640   -2.073834   -0.534848
     73          1           0        5.618148   -2.017676    0.375090
     74          1           0        5.496742   -2.775325   -1.225860
     75          6           0        4.809254   -0.714173   -1.204152
     76          1           0        4.559141    0.030575   -0.443372
     77          1           0        5.674922   -0.365138   -1.770480
 ---------------------------------------------------------------------

 SCF Done:  E(RM062X) =  -1991.36233702     A.U. after   15 cycles

 The electronic state is 1-A.
 Alpha  occ. eigenvalues --  -90.12356 -19.62415 -19.60360 -19.60174 -19.58471
 Alpha  occ. eigenvalues --  -19.53792 -14.85222 -14.80585 -14.72448 -10.65162
 Alpha  occ. eigenvalues --  -10.63503 -10.62753 -10.62160 -10.60189 -10.58908
 Alpha  occ. eigenvalues --  -10.58798 -10.58143 -10.58053 -10.57177 -10.56198
 Alpha  occ. eigenvalues --  -10.55774 -10.55426 -10.55132 -10.55047 -10.54529
 Alpha  occ. eigenvalues --  -10.54516 -10.54457 -10.54372 -10.54165 -10.53697
 Alpha  occ. eigenvalues --  -10.53476 -10.53381 -10.53071 -10.52748 -10.52614
 Alpha  occ. eigenvalues --  -10.52327  -8.43353  -6.35577  -6.35508  -6.35417
 Alpha  occ. eigenvalues --   -1.20060  -1.17790  -1.13410  -1.09563  -1.08499
 Alpha  occ. eigenvalues --   -1.08105  -1.04170  -0.99339  -0.95390  -0.94534
 Alpha  occ. eigenvalues --   -0.93056  -0.90215  -0.88810  -0.87578  -0.84885
 Alpha  occ. eigenvalues --   -0.84716  -0.84191  -0.83746  -0.82815  -0.81380
 Alpha  occ. eigenvalues --   -0.78583  -0.76660  -0.75875  -0.72069  -0.71843
 Alpha  occ. eigenvalues --   -0.71102  -0.68718  -0.68567  -0.68401  -0.67379
 Alpha  occ. eigenvalues --   -0.65840  -0.64555  -0.64234  -0.63077  -0.62292
 Alpha  occ. eigenvalues --   -0.60457  -0.60012  -0.58437  -0.58136  -0.56791
 Alpha  occ. eigenvalues --   -0.56250  -0.56041  -0.54876  -0.54230  -0.53854
 Alpha  occ. eigenvalues --   -0.53404  -0.53099  -0.52933  -0.51875  -0.51566
 Alpha  occ. eigenvalues --   -0.51436  -0.50879  -0.50698  -0.50478  -0.50092
 Alpha  occ. eigenvalues --   -0.49805  -0.48906  -0.48465  -0.48428  -0.47343
 Alpha  occ. eigenvalues --   -0.47264  -0.47142  -0.46691  -0.46422  -0.45951
 Alpha  occ. eigenvalues --   -0.45838  -0.45016  -0.44604  -0.43613  -0.43298
 Alpha  occ. eigenvalues --   -0.42962  -0.42290  -0.42006  -0.41862  -0.41592
 Alpha  occ. eigenvalues --   -0.40940  -0.40830  -0.40221  -0.39957  -0.39570
 Alpha  occ. eigenvalues --   -0.39313  -0.38969  -0.38614  -0.38450  -0.37972
 Alpha  occ. eigenvalues --   -0.37271  -0.37193  -0.36761  -0.36030  -0.34839
 Alpha  occ. eigenvalues --   -0.34417  -0.33902  -0.33137  -0.30687  -0.29476
 Alpha  occ. eigenvalues --   -0.28921  -0.28747  -0.27892  -0.25989  -0.25073
 Alpha virt. eigenvalues --   -0.01440   0.00362   0.03731   0.04460   0.10181
 Alpha virt. eigenvalues --    0.10548   0.11405   0.11411   0.12459   0.13410
 Alpha virt. eigenvalues --    0.13800   0.14219   0.15159   0.15387   0.15488

 Mulliken charges:
               1
     1  C   -0.306121
     2  C   -0.306018
     3  C   -0.311080
     4  C   -0.066218
     5  C    0.074142
     6  C   -0.306760
     7  H    0.170269
     8  H    0.161954
     9  H    0.162947
    10  H    0.150369
    11  H    0.160852
    12  H    0.208918
    13  H    0.161170
    14  H    0.186612
    15  H    0.158608
    16  H    0.154761
    17  N   -0.429168
    18  C    0.093525
    19  C    0.093806
    20  C   -0.222258
    21  H    0.206951
    22  C   -0.227000
    23  H    0.252415
    24  C    0.429789
    25  H    0.191288
    26  H    0.208725
    27  N   -0.521919
    28  C   -0.160323
    29  H    0.175829
    30  H    0.201747
    31  C   -0.146847
    32  H    0.168644
    33  H    0.198758
    34  N   -0.820322
    35  S    1.247856
    36  O   -0.618768
    37  O   -0.635794
    38  C    0.058134
    39  C   -0.189928
    40  C   -0.189908
    41  C   -0.175082
    42  C   -0.161386
    43  C   -0.204795
    44  H    0.206234
    45  H    0.134861
    46  H    0.152879
    47  H    0.157533
    48  H    0.154885
    49  O   -0.718382
    50  H    0.471951
    51  C    0.685746
    52  O   -0.542793
    53  O   -0.651093
    54  H    0.469644
    55  C   -0.364714
    56  H    0.194131
    57  H    0.160839
    58  C   -0.034833
    59  H    0.096540
    60  H    0.112107
    61  C   -0.671782
    62  H    0.261031
    63  H    0.193131
    64  H    0.211822
    65  C   -0.291944
    66  H    0.142962
    67  H    0.165529
    68  C   -0.479496
    69  H    0.157166
    70  H    0.158618
    71  H    0.149639
    72  C   -0.334767
    73  H    0.184726
    74  H    0.167645
    75  C   -0.335807
    76  H    0.185637
    77  H    0.171979
 Sum of Mulliken charges =  -0.00000

 Dipole moment (field-independent basis, Debye):
    X=              0.4007    Y=             -1.6041    Z=             -6.3330  Tot=              6.5453
 Quadrupole moment (field-independent basis, Debye-Ang):
   XX=           -200.6641   YY=           -225.3311   ZZ=           -220.7171
   XY=            -11.1765   XZ=             -0.8234   YZ=             11.2902

 Normal termination of Gaussian 16 at Thu Feb  7 19:46:02 2019.
