 Gaussian 16, Revision A.03,
 Gaussian 16:  ES64L-G16RevA.03 25-Dec-2016

 ------------------------------------------
 #p M062X/6-31G* em=gd3 force int=ultrafine
 ------------------------------------------

 -----
 Title
 -----
 Symbolic Z-matrix:
 Charge =  0 Multiplicity = 1

                         Standard orientation:
 ---------------------------------------------------------------------
 Center     Atomic      Atomic             Coordinates (Angstroms)
 Number     Number       Type             X           Y           Z
 ---------------------------------------------------------------------
      1          6           0       -4.782850    0.256455   -0.734343
      2          6           0       -4.891077   -1.075577   -1.482467
      3          6           0       -3.522836   -1.510352   -2.021074
      4          6           0       -2.551143   -1.628491   -0.852436
      5          6           0       -2.398808   -0.270657   -0.117970
      6          6           0       -3.765863    0.182294    0.408742
      7          1           0       -3.588369   -2.462957   -2.557822
      8          1           0       -5.274791   -1.849450   -0.804816
      9          1           0       -5.602521   -0.993538   -2.310202
     10          1           0       -4.473882    1.039543   -1.439132
     11          1           0       -5.762675    0.546403   -0.340976
     12          1           0       -2.931342   -2.367216   -0.139916
     13          1           0       -2.075483    0.463000   -0.867981
     14          1           0       -4.116009   -0.518552    1.173536
     15          1           0       -3.643343    1.165033    0.875639
     16          1           0       -3.175730   -0.747344   -2.730758
     17          7           0       -1.196710   -2.086425   -1.224960
     18          6           0       -0.511144   -1.466566   -2.220938
     19          6           0       -0.497459   -2.787939   -0.292250
     20          6           0        0.847342   -1.493754   -2.293315
     21          1           0       -1.106779   -0.922450   -2.943270
     22          6           0        0.861654   -2.833448   -0.279510
     23          1           0       -1.090217   -3.254695    0.486873
     24          6           0        1.598664   -2.079182   -1.231094
     25          1           0        1.336653   -0.982977   -3.111238
     26          1           0        1.348125   -3.344890    0.539103
     27          7           0        2.916683   -1.936372   -1.140711
     28          6           0        3.642229   -2.257854    0.098475
     29          1           0        3.544862   -3.320831    0.336272
     30          1           0        3.222677   -1.645853    0.911257
     31          6           0        3.637597   -0.940708   -1.942387
     32          1           0        3.887251   -1.359470   -2.925110
     33          1           0        3.002046   -0.059823   -2.071181
     34          7           0       -1.319935   -0.280910    0.857223
     35         16           0       -1.414354   -1.060377    2.283746
     36          8           0       -2.593176   -1.932624    2.266755
     37          8           0       -0.118306   -1.683922    2.567905
     38          6           0       -0.668839    2.710382    0.007914
     39          6           0       -0.200093    2.247925   -1.231668
     40          6           0       -1.007976    2.307968   -2.364942
     41          6           0       -2.303653    2.820802   -2.291830
     42          6           0       -2.784915    3.272223   -1.066762
     43          6           0       -1.968829    3.218742    0.063838
     44          1           0        0.780521    1.790231   -1.280062
     45          1           0       -0.617867    1.956801   -3.317557
     46          1           0       -2.928603    2.871535   -3.179299
     47          1           0       -3.792765    3.671568   -0.988308
     48          1           0       -2.351710    3.587208    1.013552
     49          8           0        0.662439    1.629127    1.879647
     50          1           0       -0.321722   -0.041937    0.556318
     51          6           0        1.774273    0.873572    1.236498
     52          8           0        1.341781    0.250688    0.158074
     53          8           0        2.170959    0.008174    2.285678
     54          1           0        1.449804   -0.642280    2.369745
     55          6           0        2.996488    1.816243    1.066305
     56          1           0        2.984448    2.555969    1.876875
     57          1           0        3.876548    1.188544    1.255783
     58          6           0        0.200812    2.801303    1.264663
     59          1           0       -0.403728    3.308219    2.027928
     60          1           0        1.042426    3.475517    1.048739
     61          6           0       -1.649340    0.214581    3.500357
     62          1           0       -0.789712    0.883710    3.404286
     63          1           0       -2.585736    0.729081    3.276418
     64          1           0       -1.690466   -0.262025    4.481460
     65          6           0        3.174126    2.502594   -0.284884
     66          1           0        3.090250    1.749478   -1.076400
     67          1           0        2.370818    3.221875   -0.478563
     68          6           0        4.518481    3.222254   -0.384770
     69          1           0        4.647512    3.708441   -1.356870
     70          1           0        4.606802    3.991262    0.390113
     71          1           0        5.351369    2.523373   -0.244346
     72          6           0        5.076601   -1.860618   -0.235188
     73          1           0        5.661835   -1.658380    0.663805
     74          1           0        5.569294   -2.660174   -0.799041
     75          6           0        4.884415   -0.619991   -1.111855
     76          1           0        4.672972    0.243512   -0.476525
     77          1           0        5.749894   -0.388226   -1.736238
 ---------------------------------------------------------------------

 SCF Done:  E(RM062X) =  -1991.35899373     A.U. after   14 cycles

 The electronic state is 1-A.
 Alpha  occ. eigenvalues --  -90.14025 -19.61639 -19.61633 -19.58817 -19.56740
 Alpha  occ. eigenvalues --  -19.51392 -14.85106 -14.80462 -14.75403 -10.63360
 Alpha  occ. eigenvalues --  -10.62729 -10.62329 -10.62022 -10.60633 -10.59179
 Alpha  occ. eigenvalues --  -10.58791 -10.57871 -10.57865 -10.57023 -10.56847
 Alpha  occ. eigenvalues --  -10.56651 -10.55592 -10.55588 -10.55231 -10.55114
 Alpha  occ. eigenvalues --  -10.54703 -10.54698 -10.54590 -10.54424 -10.54273
 Alpha  occ. eigenvalues --  -10.54195 -10.54141 -10.53080 -10.51705 -10.51594
 Alpha  occ. eigenvalues --  -10.49816  -8.45004  -6.37219  -6.37199  -6.37043
 Alpha  occ. eigenvalues --   -1.21857  -1.13691  -1.13436  -1.10100  -1.09363
 Alpha  occ. eigenvalues --   -1.05905  -1.01553  -0.99440  -0.95657  -0.94885
 Alpha  occ. eigenvalues --   -0.93447  -0.90204  -0.88757  -0.85934  -0.85799
 Alpha  occ. eigenvalues --   -0.84753  -0.84616  -0.84364  -0.82965  -0.82577
 Alpha  occ. eigenvalues --   -0.76629  -0.76383  -0.75826  -0.74384  -0.72682
 Alpha  occ. eigenvalues --   -0.71537  -0.68360  -0.68297  -0.67877  -0.67125
 Alpha  occ. eigenvalues --   -0.66745  -0.65162  -0.64857  -0.63519  -0.60567
 Alpha  occ. eigenvalues --   -0.60404  -0.59790  -0.58786  -0.57862  -0.57521
 Alpha  occ. eigenvalues --   -0.57108  -0.56410  -0.55662  -0.55163  -0.54165
 Alpha  occ. eigenvalues --   -0.53414  -0.52610  -0.52374  -0.52327  -0.51831
 Alpha  occ. eigenvalues --   -0.51504  -0.51104  -0.50950  -0.49834  -0.49583
 Alpha  occ. eigenvalues --   -0.49162  -0.48794  -0.48215  -0.48105  -0.48046
 Alpha  occ. eigenvalues --   -0.47600  -0.47411  -0.46883  -0.46466  -0.46081
 Alpha  occ. eigenvalues --   -0.44939  -0.44630  -0.44047  -0.43864  -0.43241
 Alpha  occ. eigenvalues --   -0.42415  -0.42067  -0.41612  -0.41450  -0.41219
 Alpha  occ. eigenvalues --   -0.40869  -0.40424  -0.40021  -0.39869  -0.39565
 Alpha  occ. eigenvalues --   -0.39228  -0.39034  -0.38402  -0.37851  -0.37574
 Alpha  occ. eigenvalues --   -0.37332  -0.36728  -0.36555  -0.35661  -0.34866
 Alpha  occ. eigenvalues --   -0.34321  -0.33857  -0.31789  -0.30927  -0.29663
 Alpha  occ. eigenvalues --   -0.28876  -0.28496  -0.27525  -0.24997  -0.24531
 Alpha virt. eigenvalues --   -0.01350   0.00541   0.03673   0.03898   0.10262
 Alpha virt. eigenvalues --    0.11072   0.11505   0.12058   0.13212   0.13527
 Alpha virt. eigenvalues --    0.14255   0.14683   0.14849   0.15423   0.15604

 Mulliken charges:
               1
     1  C   -0.306044
     2  C   -0.306820
     3  C   -0.310637
     4  C   -0.058630
     5  C    0.056415
     6  C   -0.311541
     7  H    0.173748
     8  H    0.162960
     9  H    0.164963
    10  H    0.150203
    11  H    0.162819
    12  H    0.208294
    13  H    0.172181
    14  H    0.194032
    15  H    0.163247
    16  H    0.153485
    17  N   -0.433613
    18  C    0.071032
    19  C    0.065655
    20  C   -0.206586
    21  H    0.207225
    22  C   -0.209798
    23  H    0.245870
    24  C    0.453550
    25  H    0.190537
    26  H    0.211763
    27  N   -0.530986
    28  C   -0.178331
    29  H    0.169980
    30  H    0.240040
    31  C   -0.154252
    32  H    0.168996
    33  H    0.199945
    34  N   -0.817422
    35  S    1.254384
    36  O   -0.611253
    37  O   -0.610094
    38  C    0.093891
    39  C   -0.176219
    40  C   -0.188525
    41  C   -0.170194
    42  C   -0.163526
    43  C   -0.212038
    44  H    0.200952
    45  H    0.141839
    46  H    0.154292
    47  H    0.157812
    48  H    0.151521
    49  O   -0.547607
    50  H    0.449909
    51  C    0.728987
    52  O   -0.724354
    53  O   -0.718320
    54  H    0.446067
    55  C   -0.337173
    56  H    0.150542
    57  H    0.146795
    58  C   -0.096211
    59  H    0.141451
    60  H    0.146515
    61  C   -0.662449
    62  H    0.269560
    63  H    0.196290
    64  H    0.217243
    65  C   -0.295803
    66  H    0.142179
    67  H    0.147170
    68  C   -0.476790
    69  H    0.149671
    70  H    0.156512
    71  H    0.144202
    72  C   -0.332010
    73  H    0.187476
    74  H    0.164018
    75  C   -0.344771
    76  H    0.193477
    77  H    0.172304
 Sum of Mulliken charges =  -0.00000

 Dipole moment (field-independent basis, Debye):
    X=             -1.8997    Y=             -2.0799    Z=             -6.4925  Tot=              7.0772
 Quadrupole moment (field-independent basis, Debye-Ang):
   XX=           -204.2588   YY=           -222.9828   ZZ=           -220.1759
   XY=            -12.1066   XZ=             -4.9633   YZ=             10.4167

 Normal termination of Gaussian 16 at Thu Feb  7 18:04:50 2019.
