 Gaussian 16, Revision A.03,
 Gaussian 16:  ES64L-G16RevA.03 25-Dec-2016

 ------------------------------------------
 #p M062X/6-31G* em=gd3 force int=ultrafine
 ------------------------------------------

 -----
 Title
 -----
 Symbolic Z-matrix:
 Charge =  0 Multiplicity = 1

                         Standard orientation:
 ---------------------------------------------------------------------
 Center     Atomic      Atomic             Coordinates (Angstroms)
 Number     Number       Type             X           Y           Z
 ---------------------------------------------------------------------
      1          6           0       -4.846460    0.380599   -0.501634
      2          6           0       -4.978837   -0.889428   -1.347624
      3          6           0       -3.623733   -1.295178   -1.940295
      4          6           0       -2.635650   -1.514051   -0.802517
      5          6           0       -2.459974   -0.231022    0.049912
      6          6           0       -3.817427    0.202781    0.617744
      7          1           0       -3.709166   -2.199922   -2.551828
      8          1           0       -5.360060   -1.708380   -0.723690
      9          1           0       -5.700802   -0.739616   -2.156690
     10          1           0       -4.528934    1.209220   -1.150439
     11          1           0       -5.819650    0.656389   -0.082192
     12          1           0       -2.995548   -2.313142   -0.147053
     13          1           0       -2.151968    0.554738   -0.657958
     14          1           0       -4.161336   -0.543282    1.343409
     15          1           0       -3.668482    1.149186    1.152433
     16          1           0       -3.280232   -0.478400   -2.590072
     17          7           0       -1.285334   -1.938362   -1.247000
     18          6           0       -0.627424   -1.250439   -2.210104
     19          6           0       -0.568809   -2.730314   -0.413345
     20          6           0        0.728024   -1.315878   -2.358941
     21          1           0       -1.234674   -0.616165   -2.842781
     22          6           0        0.789981   -2.843555   -0.496407
     23          1           0       -1.134711   -3.238883    0.359557
     24          6           0        1.509067   -2.055517   -1.427313
     25          1           0        1.193797   -0.740454   -3.148364
     26          1           0        1.291230   -3.450354    0.244651
     27          7           0        2.847738   -1.994367   -1.411805
     28          6           0        3.600226   -2.504311   -0.257234
     29          1           0        3.500634   -3.589964   -0.176538
     30          1           0        3.210122   -2.036942    0.657932
     31          6           0        3.584741   -0.917283   -2.094325
     32          1           0        3.855463   -1.231237   -3.109286
     33          1           0        2.967680   -0.016131   -2.138313
     34          7           0       -1.357307   -0.348988    0.966478
     35         16           0       -1.390919   -1.233386    2.280630
     36          8           0       -2.529194   -2.173618    2.302809
     37          8           0       -0.046119   -1.834175    2.476452
     38          6           0       -0.752614    2.775936   -0.064764
     39          6           0       -0.167999    2.135252   -1.165061
     40          6           0       -0.812043    2.159057   -2.399841
     41          6           0       -2.054409    2.780136   -2.540958
     42          6           0       -2.645651    3.395126   -1.440242
     43          6           0       -1.989074    3.395200   -0.213441
     44          1           0        0.762602    1.584966   -1.034039
     45          1           0       -0.347301    1.681962   -3.260518
     46          1           0       -2.560105    2.785527   -3.501478
     47          1           0       -3.617219    3.870484   -1.528163
     48          1           0       -2.441943    3.862822    0.657326
     49          8           0        0.271950    1.445246    1.652204
     50          1           0       -0.388518    0.745183    1.238082
     51          6           0        2.387961    0.571296    1.172370
     52          8           0        2.088066    0.155630    0.068334
     53          8           0        2.257692   -0.145613    2.287877
     54          1           0        1.530778   -0.808456    2.177656
     55          6           0        3.118918    1.875618    1.397102
     56          1           0        2.616129    2.427464    2.199502
     57          1           0        4.107057    1.600971    1.788827
     58          6           0       -0.106015    2.729757    1.299023
     59          1           0       -0.795940    3.162166    2.041264
     60          1           0        0.794063    3.363541    1.308192
     61          6           0       -1.544912   -0.086656    3.651381
     62          1           0       -0.727901    0.629111    3.528970
     63          1           0       -2.510723    0.416981    3.581450
     64          1           0       -1.452832   -0.631291    4.592054
     65          6           0        3.276935    2.727491    0.139038
     66          1           0        3.662988    2.100522   -0.672857
     67          1           0        2.300011    3.087000   -0.205266
     68          6           0        4.210449    3.913676    0.372959
     69          1           0        4.364217    4.490771   -0.543489
     70          1           0        3.806845    4.592684    1.131691
     71          1           0        5.190738    3.572789    0.723407
     72          6           0        5.029221   -2.053496   -0.541394
     73          1           0        5.628304   -1.995341    0.369489
     74          1           0        5.513562   -2.750846   -1.232625
     75          6           0        4.815969   -0.694439   -1.210738
     76          1           0        4.568785    0.051212   -0.449895
     77          1           0        5.680124   -0.342591   -1.777665
 ---------------------------------------------------------------------

 SCF Done:  E(RM062X) =  -1991.37421676     A.U. after   15 cycles

 The electronic state is 1-A.
 Alpha  occ. eigenvalues --  -90.10437 -19.63547 -19.59968 -19.58460 -19.58406
 Alpha  occ. eigenvalues --  -19.57481 -14.84818 -14.80403 -14.69409 -10.65951
 Alpha  occ. eigenvalues --  -10.63231 -10.62464 -10.61739 -10.59306 -10.59014
 Alpha  occ. eigenvalues --  -10.58831 -10.57833 -10.56863 -10.56822 -10.56801
 Alpha  occ. eigenvalues --  -10.55892 -10.55653 -10.55647 -10.55049 -10.54976
 Alpha  occ. eigenvalues --  -10.54879 -10.54647 -10.54433 -10.54355 -10.53867
 Alpha  occ. eigenvalues --  -10.53688 -10.53645 -10.53615 -10.53309 -10.52990
 Alpha  occ. eigenvalues --  -10.52671  -8.41384  -6.33620  -6.33532  -6.33455
 Alpha  occ. eigenvalues --   -1.19164  -1.17893  -1.12962  -1.10011  -1.09209
 Alpha  occ. eigenvalues --   -1.09006  -1.06215  -0.97854  -0.95320  -0.94825
 Alpha  occ. eigenvalues --   -0.92318  -0.89850  -0.88592  -0.88461  -0.84955
 Alpha  occ. eigenvalues --   -0.84778  -0.83801  -0.83575  -0.83348  -0.80073
 Alpha  occ. eigenvalues --   -0.79491  -0.76327  -0.75623  -0.74296  -0.71048
 Alpha  occ. eigenvalues --   -0.70454  -0.69424  -0.68644  -0.68342  -0.68080
 Alpha  occ. eigenvalues --   -0.65918  -0.64833  -0.63926  -0.63496  -0.61745
 Alpha  occ. eigenvalues --   -0.60333  -0.59462  -0.59031  -0.58351  -0.56247
 Alpha  occ. eigenvalues --   -0.55886  -0.55308  -0.55245  -0.54742  -0.53899
 Alpha  occ. eigenvalues --   -0.53526  -0.53070  -0.52583  -0.51880  -0.51550
 Alpha  occ. eigenvalues --   -0.51139  -0.50942  -0.50677  -0.49970  -0.49837
 Alpha  occ. eigenvalues --   -0.49797  -0.49524  -0.48764  -0.48319  -0.48018
 Alpha  occ. eigenvalues --   -0.47420  -0.47242  -0.47096  -0.46898  -0.45851
 Alpha  occ. eigenvalues --   -0.45519  -0.45205  -0.44078  -0.43828  -0.43513
 Alpha  occ. eigenvalues --   -0.43229  -0.42818  -0.42115  -0.41768  -0.41648
 Alpha  occ. eigenvalues --   -0.41283  -0.40885  -0.40492  -0.39895  -0.39735
 Alpha  occ. eigenvalues --   -0.39448  -0.39393  -0.39190  -0.38466  -0.38078
 Alpha  occ. eigenvalues --   -0.37502  -0.36337  -0.35768  -0.35463  -0.34992
 Alpha  occ. eigenvalues --   -0.34146  -0.32955  -0.31990  -0.31692  -0.30550
 Alpha  occ. eigenvalues --   -0.29964  -0.28398  -0.28259  -0.27202  -0.25546
 Alpha virt. eigenvalues --   -0.01113   0.00683   0.03165   0.03773   0.09098
 Alpha virt. eigenvalues --    0.10137   0.10953   0.11741   0.12964   0.13445
 Alpha virt. eigenvalues --    0.13762   0.14361   0.15081   0.15386   0.15854

 Mulliken charges:
               1
     1  C   -0.303838
     2  C   -0.305023
     3  C   -0.309365
     4  C   -0.067968
     5  C    0.073964
     6  C   -0.305190
     7  H    0.167370
     8  H    0.162033
     9  H    0.159678
    10  H    0.144612
    11  H    0.157788
    12  H    0.207701
    13  H    0.142319
    14  H    0.185474
    15  H    0.150128
    16  H    0.150055
    17  N   -0.425389
    18  C    0.096252
    19  C    0.098850
    20  C   -0.226308
    21  H    0.204556
    22  C   -0.228685
    23  H    0.255285
    24  C    0.426074
    25  H    0.187749
    26  H    0.207971
    27  N   -0.524516
    28  C   -0.159257
    29  H    0.177652
    30  H    0.198031
    31  C   -0.145133
    32  H    0.169285
    33  H    0.194058
    34  N   -0.792573
    35  S    1.244783
    36  O   -0.631110
    37  O   -0.661779
    38  C    0.052710
    39  C   -0.179335
    40  C   -0.188966
    41  C   -0.170482
    42  C   -0.160692
    43  C   -0.199186
    44  H    0.204783
    45  H    0.139570
    46  H    0.156860
    47  H    0.162035
    48  H    0.158991
    49  O   -0.719662
    50  H    0.490419
    51  C    0.679436
    52  O   -0.524143
    53  O   -0.646819
    54  H    0.477907
    55  C   -0.376340
    56  H    0.197270
    57  H    0.169387
    58  C   -0.059443
    59  H    0.120703
    60  H    0.134055
    61  C   -0.669189
    62  H    0.239849
    63  H    0.184330
    64  H    0.205398
    65  C   -0.293117
    66  H    0.148252
    67  H    0.163986
    68  C   -0.480486
    69  H    0.160414
    70  H    0.159177
    71  H    0.152405
    72  C   -0.334792
    73  H    0.183824
    74  H    0.169060
    75  C   -0.335129
    76  H    0.178991
    77  H    0.172435
 Sum of Mulliken charges =  -0.00000

 Dipole moment (field-independent basis, Debye):
    X=              1.7711    Y=              0.2372    Z=             -6.7061  Tot=              6.9401
 Quadrupole moment (field-independent basis, Debye-Ang):
   XX=           -201.2249   YY=           -222.9907   ZZ=           -222.6164
   XY=            -11.5640   XZ=              1.6486   YZ=             13.4208

 Normal termination of Gaussian 16 at Thu Feb  7 20:30:12 2019.
