 Gaussian 16, Revision A.03,
 Gaussian 16:  ES64L-G16RevA.03 25-Dec-2016

 ------------------------------------------
 #p M062X/6-31G* em=gd3 force int=ultrafine
 ------------------------------------------

 -----
 Title
 -----
 Symbolic Z-matrix:
 Charge =  0 Multiplicity = 1

                         Standard orientation:
 ---------------------------------------------------------------------
 Center     Atomic      Atomic             Coordinates (Angstroms)
 Number     Number       Type             X           Y           Z
 ---------------------------------------------------------------------
      1          6           0       -4.864647    0.498787   -0.556679
      2          6           0       -5.037602   -0.804805   -1.341709
      3          6           0       -3.698236   -1.274171   -1.922341
      4          6           0       -2.702866   -1.468854   -0.783094
      5          6           0       -2.499202   -0.147075   -0.003612
      6          6           0       -3.833091    0.346226    0.564575
      7          1           0       -3.811345   -2.205070   -2.488019
      8          1           0       -5.438083   -1.583412   -0.679275
      9          1           0       -5.761156   -0.671043   -2.151884
     10          1           0       -4.531741    1.289811   -1.242425
     11          1           0       -5.825190    0.817534   -0.139402
     12          1           0       -3.087512   -2.225581   -0.091618
     13          1           0       -2.155785    0.600512   -0.730209
     14          1           0       -4.194791   -0.359988    1.319465
     15          1           0       -3.655046    1.308834    1.056829
     16          1           0       -3.335814   -0.502037   -2.614236
     17          7           0       -1.373538   -1.951422   -1.212250
     18          6           0       -0.688459   -1.306297   -2.194401
     19          6           0       -0.679927   -2.744127   -0.352772
     20          6           0        0.662502   -1.402296   -2.323527
     21          1           0       -1.277065   -0.682309   -2.854797
     22          6           0        0.672732   -2.876170   -0.407783
     23          1           0       -1.266231   -3.222167    0.424297
     24          6           0        1.421704   -2.115141   -1.347221
     25          1           0        1.150689   -0.861014   -3.122908
     26          1           0        1.156857   -3.473109    0.352005
     27          7           0        2.748430   -2.080593   -1.316528
     28          6           0        3.485296   -2.569829   -0.140241
     29          1           0        3.343346   -3.647144   -0.015787
     30          1           0        3.114985   -2.025858    0.740441
     31          6           0        3.515435   -1.045939   -2.030687
     32          1           0        3.773550   -1.400476   -3.036429
     33          1           0        2.918301   -0.132767   -2.082889
     34          7           0       -1.410813   -0.229912    0.954706
     35         16           0       -1.417290   -1.081709    2.347786
     36          8           0       -2.653625   -1.866380    2.364947
     37          8           0       -0.145461   -1.791701    2.484303
     38          6           0       -0.525417    2.658234   -0.081142
     39          6           0       -0.046502    2.067622   -1.259232
     40          6           0       -0.792368    2.139737   -2.435579
     41          6           0       -2.029131    2.783924   -2.461112
     42          6           0       -2.516622    3.365216   -1.292254
     43          6           0       -1.766233    3.301892   -0.118356
     44          1           0        0.887370    1.509899   -1.209992
     45          1           0       -0.397670    1.692575   -3.345941
     46          1           0       -2.603559    2.839456   -3.381714
     47          1           0       -3.478346    3.870909   -1.294485
     48          1           0       -2.153665    3.762258    0.788461
     49          8           0        0.718093    1.415147    1.699146
     50          1           0       -0.484544    0.171601    0.733617
     51          6           0        2.019531    0.767281    1.175505
     52          8           0        1.804919    0.188491    0.035811
     53          8           0        2.291299   -0.117362    2.247220
     54          1           0        1.585441   -0.787444    2.203889
     55          6           0        3.139226    1.830075    1.232268
     56          1           0        2.951647    2.521767    2.063595
     57          1           0        4.058036    1.290311    1.495437
     58          6           0        0.272283    2.653635    1.222402
     59          1           0       -0.384815    3.067871    2.001260
     60          1           0        1.108083    3.361927    1.126489
     61          6           0       -1.449115    0.145093    3.633517
     62          1           0       -0.559670    0.762725    3.475464
     63          1           0       -2.368572    0.723988    3.534072
     64          1           0       -1.413561   -0.375102    4.592109
     65          6           0        3.373614    2.592671   -0.069572
     66          1           0        3.629058    1.875768   -0.858477
     67          1           0        2.453917    3.081264   -0.412148
     68          6           0        4.478598    3.637014    0.075304
     69          1           0        4.667782    4.163930   -0.865115
     70          1           0        4.210938    4.385030    0.830082
     71          1           0        5.417080    3.171388    0.396641
     72          6           0        4.927160   -2.187214   -0.452040
     73          1           0        5.534721   -2.124855    0.452616
     74          1           0        5.379947   -2.921417   -1.127962
     75          6           0        4.748944   -0.838194   -1.149632
     76          1           0        4.500816   -0.080549   -0.400981
     77          1           0        5.622251   -0.516513   -1.721079
 ---------------------------------------------------------------------

 SCF Done:  E(RM062X) =  -1991.35593480     A.U. after   15 cycles

 The electronic state is 1-A.
 Alpha  occ. eigenvalues --  -90.14804 -19.62377 -19.62186 -19.58558 -19.56776
 Alpha  occ. eigenvalues --  -19.50459 -14.85251 -14.80108 -14.76779 -10.63218
 Alpha  occ. eigenvalues --  -10.62677 -10.62185 -10.62017 -10.61095 -10.59887
 Alpha  occ. eigenvalues --  -10.57855 -10.57821 -10.57652 -10.57045 -10.56985
 Alpha  occ. eigenvalues --  -10.56914 -10.56237 -10.55889 -10.55091 -10.55053
 Alpha  occ. eigenvalues --  -10.54968 -10.54808 -10.54704 -10.54678 -10.54602
 Alpha  occ. eigenvalues --  -10.54440 -10.54163 -10.53043 -10.51097 -10.50994
 Alpha  occ. eigenvalues --  -10.49447  -8.45772  -6.38000  -6.37954  -6.37812
 Alpha  occ. eigenvalues --   -1.22585  -1.13539  -1.12928  -1.10806  -1.08962
 Alpha  occ. eigenvalues --   -1.05783  -1.02516  -0.99493  -0.95879  -0.95155
 Alpha  occ. eigenvalues --   -0.93520  -0.90197  -0.88627  -0.86517  -0.85322
 Alpha  occ. eigenvalues --   -0.84918  -0.84867  -0.83779  -0.83228  -0.83084
 Alpha  occ. eigenvalues --   -0.76625  -0.75921  -0.75620  -0.74257  -0.73283
 Alpha  occ. eigenvalues --   -0.71799  -0.68210  -0.68176  -0.67785  -0.67510
 Alpha  occ. eigenvalues --   -0.66470  -0.65487  -0.64826  -0.63404  -0.60489
 Alpha  occ. eigenvalues --   -0.60329  -0.59937  -0.59489  -0.57886  -0.57692
 Alpha  occ. eigenvalues --   -0.57224  -0.56460  -0.55761  -0.55123  -0.54360
 Alpha  occ. eigenvalues --   -0.53594  -0.53072  -0.52695  -0.52477  -0.52103
 Alpha  occ. eigenvalues --   -0.51698  -0.50819  -0.50211  -0.49918  -0.49342
 Alpha  occ. eigenvalues --   -0.49204  -0.48987  -0.48415  -0.48138  -0.47959
 Alpha  occ. eigenvalues --   -0.47733  -0.47621  -0.47164  -0.46157  -0.45842
 Alpha  occ. eigenvalues --   -0.45187  -0.45032  -0.44358  -0.43892  -0.43238
 Alpha  occ. eigenvalues --   -0.42527  -0.42287  -0.41133  -0.40961  -0.40834
 Alpha  occ. eigenvalues --   -0.40671  -0.40454  -0.40028  -0.39845  -0.39370
 Alpha  occ. eigenvalues --   -0.39208  -0.38930  -0.38548  -0.38346  -0.37858
 Alpha  occ. eigenvalues --   -0.37331  -0.36515  -0.36414  -0.36087  -0.34989
 Alpha  occ. eigenvalues --   -0.34474  -0.34253  -0.31809  -0.31318  -0.29952
 Alpha  occ. eigenvalues --   -0.29114  -0.28778  -0.27755  -0.24055  -0.23881
 Alpha virt. eigenvalues --   -0.01294   0.00504   0.03276   0.03600   0.10129
 Alpha virt. eigenvalues --    0.10594   0.11329   0.12535   0.13166   0.13264
 Alpha virt. eigenvalues --    0.14116   0.14418   0.14929   0.15464   0.15558

 Mulliken charges:
               1
     1  C   -0.306370
     2  C   -0.307806
     3  C   -0.310788
     4  C   -0.059235
     5  C    0.061101
     6  C   -0.307708
     7  H    0.175552
     8  H    0.163220
     9  H    0.166861
    10  H    0.150975
    11  H    0.165068
    12  H    0.206771
    13  H    0.175601
    14  H    0.193852
    15  H    0.162286
    16  H    0.156181
    17  N   -0.437426
    18  C    0.075889
    19  C    0.074784
    20  C   -0.206821
    21  H    0.203814
    22  C   -0.217534
    23  H    0.243135
    24  C    0.449648
    25  H    0.192314
    26  H    0.210200
    27  N   -0.519502
    28  C   -0.167259
    29  H    0.167115
    30  H    0.223673
    31  C   -0.147221
    32  H    0.160883
    33  H    0.205850
    34  N   -0.801845
    35  S    1.241652
    36  O   -0.603426
    37  O   -0.592348
    38  C    0.056151
    39  C   -0.196263
    40  C   -0.191887
    41  C   -0.172415
    42  C   -0.165471
    43  C   -0.205889
    44  H    0.230455
    45  H    0.141423
    46  H    0.155813
    47  H    0.159358
    48  H    0.153452
    49  O   -0.583605
    50  H    0.442478
    51  C    0.717967
    52  O   -0.703764
    53  O   -0.707385
    54  H    0.432446
    55  C   -0.340494
    56  H    0.143680
    57  H    0.150194
    58  C   -0.082816
    59  H    0.133135
    60  H    0.154445
    61  C   -0.665030
    62  H    0.271966
    63  H    0.199865
    64  H    0.221687
    65  C   -0.285696
    66  H    0.140250
    67  H    0.140812
    68  C   -0.474337
    69  H    0.147844
    70  H    0.150050
    71  H    0.147812
    72  C   -0.333713
    73  H    0.185138
    74  H    0.160190
    75  C   -0.339212
    76  H    0.204083
    77  H    0.166145
 Sum of Mulliken charges =  -0.00000

 Dipole moment (field-independent basis, Debye):
    X=             -3.5752    Y=             -1.8453    Z=             -5.8002  Tot=              7.0590
 Quadrupole moment (field-independent basis, Debye-Ang):
   XX=           -208.4238   YY=           -221.9313   ZZ=           -218.8467
   XY=            -13.2199   XZ=             -4.1808   YZ=             10.6235

 Normal termination of Gaussian 16 at Thu Feb  7 11:04:00 2019.
