 Gaussian 16, Revision A.03,
 Gaussian 16:  ES64L-G16RevA.03 25-Dec-2016

 ------------------------------------------
 #p M062X/6-31G* em=gd3 force int=ultrafine
 ------------------------------------------

 -----
 Title
 -----
 Symbolic Z-matrix:
 Charge =  0 Multiplicity = 1

                         Standard orientation:
 ---------------------------------------------------------------------
 Center     Atomic      Atomic             Coordinates (Angstroms)
 Number     Number       Type             X           Y           Z
 ---------------------------------------------------------------------
      1          6           0       -4.782466    0.237211   -0.753387
      2          6           0       -4.883078   -1.100925   -1.491588
      3          6           0       -3.511160   -1.534989   -2.021255
      4          6           0       -2.543263   -1.640195   -0.848178
      5          6           0       -2.399200   -0.276430   -0.123091
      6          6           0       -3.770341    0.174748    0.394659
      7          1           0       -3.571056   -2.492092   -2.550627
      8          1           0       -5.266848   -1.870800   -0.809448
      9          1           0       -5.591390   -1.027911   -2.322866
     10          1           0       -4.472902    1.015991   -1.462740
     11          1           0       -5.764940    0.526980   -0.366556
     12          1           0       -2.923001   -2.375135   -0.131475
     13          1           0       -2.075650    0.453194   -0.876992
     14          1           0       -4.121265   -0.522376    1.162436
     15          1           0       -3.653702    1.160978    0.855581
     16          1           0       -3.164301   -0.776420   -2.735762
     17          7           0       -1.185877   -2.095621   -1.212802
     18          6           0       -0.500384   -1.483214   -2.213362
     19          6           0       -0.486412   -2.786984   -0.272675
     20          6           0        0.858200   -1.508487   -2.283951
     21          1           0       -1.096164   -0.947014   -2.941452
     22          6           0        0.872772   -2.829232   -0.257614
     23          1           0       -1.079275   -3.248379    0.509550
     24          6           0        1.609366   -2.082649   -1.215575
     25          1           0        1.347445   -1.004368   -3.106030
     26          1           0        1.359371   -3.331942    0.566358
     27          7           0        2.927166   -1.937253   -1.125856
     28          6           0        3.653328   -2.248121    0.115668
     29          1           0        3.557245   -3.309387    0.361585
     30          1           0        3.233048   -1.630742    0.924009
     31          6           0        3.647638   -0.949162   -1.937057
     32          1           0        3.897746   -1.377349   -2.915598
     33          1           0        3.011736   -0.069901   -2.075040
     34          7           0       -1.324238   -0.275326    0.856496
     35         16           0       -1.421792   -1.044602    2.288195
     36          8           0       -2.598922   -1.919172    2.274253
     37          8           0       -0.125749   -1.663995    2.581337
     38          6           0       -0.674997    2.711638    0.000003
     39          6           0       -0.207413    2.248682   -1.239863
     40          6           0       -1.017811    2.304667   -2.371464
     41          6           0       -2.315103    2.813457   -2.296113
     42          6           0       -2.795523    3.264563   -1.070568
     43          6           0       -1.976744    3.215549    0.058255
     44          1           0        0.774254    1.793619   -1.289651
     45          1           0       -0.628724    1.953395   -3.324502
     46          1           0       -2.942076    2.861057   -3.182291
     47          1           0       -3.804397    3.660575   -0.990742
     48          1           0       -2.358728    3.583851    1.008560
     49          8           0        0.659437    1.638251    1.874100
     50          1           0       -0.325260   -0.037509    0.555847
     51          6           0        1.769444    0.879766    1.231257
     52          8           0        1.334057    0.254136    0.155414
     53          8           0        2.167842    0.017505    2.282445
     54          1           0        1.444284   -0.629241    2.373820
     55          6           0        2.992493    1.820710    1.055704
     56          1           0        2.981952    2.563636    1.863191
     57          1           0        3.872126    1.192654    1.246627
     58          6           0        0.197394    2.807975    1.254436
     59          1           0       -0.405107    3.319009    2.016659
     60          1           0        1.039231    3.480405    1.033480
     61          6           0       -1.662615    0.239367    3.494086
     62          1           0       -0.804356    0.909163    3.394976
     63          1           0       -2.598927    0.750283    3.264168
     64          1           0       -1.704767   -0.229365    4.478117
     65          6           0        3.169436    2.501421   -0.298396
     66          1           0        3.084753    1.744805   -1.086493
     67          1           0        2.366181    3.220090   -0.494422
     68          6           0        4.513778    3.220845   -0.402340
     69          1           0        4.641828    3.703124   -1.376515
     70          1           0        4.602523    3.993092    0.369301
     71          1           0        5.347027    2.522855   -0.259709
     72          6           0        5.087314   -1.852163   -0.221525
     73          1           0        5.672352   -1.641226    0.675562
     74          1           0        5.580946   -2.656161   -0.778112
     75          6           0        4.894178   -0.619798   -1.109522
     76          1           0        4.682328    0.249555   -0.482381
     77          1           0        5.759479   -0.393262   -1.736047
 ---------------------------------------------------------------------

 SCF Done:  E(RM062X) =  -1991.35900415     A.U. after   14 cycles

 The electronic state is 1-A.
 Alpha  occ. eigenvalues --  -90.14015 -19.61628 -19.61625 -19.58824 -19.56748
 Alpha  occ. eigenvalues --  -19.51396 -14.85102 -14.80465 -14.75380 -10.63356
 Alpha  occ. eigenvalues --  -10.62722 -10.62337 -10.62011 -10.60627 -10.59168
 Alpha  occ. eigenvalues --  -10.58811 -10.57866 -10.57859 -10.57014 -10.56846
 Alpha  occ. eigenvalues --  -10.56649 -10.55583 -10.55573 -10.55242 -10.55132
 Alpha  occ. eigenvalues --  -10.54691 -10.54690 -10.54576 -10.54411 -10.54264
 Alpha  occ. eigenvalues --  -10.54185 -10.54125 -10.53075 -10.51715 -10.51601
 Alpha  occ. eigenvalues --  -10.49824  -8.44994  -6.37209  -6.37189  -6.37033
 Alpha  occ. eigenvalues --   -1.21848  -1.13693  -1.13427  -1.10089  -1.09366
 Alpha  occ. eigenvalues --   -1.05905  -1.01542  -0.99443  -0.95652  -0.94871
 Alpha  occ. eigenvalues --   -0.93445  -0.90197  -0.88759  -0.85938  -0.85799
 Alpha  occ. eigenvalues --   -0.84742  -0.84607  -0.84374  -0.82956  -0.82573
 Alpha  occ. eigenvalues --   -0.76627  -0.76386  -0.75825  -0.74378  -0.72676
 Alpha  occ. eigenvalues --   -0.71529  -0.68368  -0.68299  -0.67869  -0.67120
 Alpha  occ. eigenvalues --   -0.66742  -0.65154  -0.64854  -0.63520  -0.60564
 Alpha  occ. eigenvalues --   -0.60405  -0.59789  -0.58773  -0.57869  -0.57514
 Alpha  occ. eigenvalues --   -0.57102  -0.56408  -0.55653  -0.55165  -0.54164
 Alpha  occ. eigenvalues --   -0.53405  -0.52606  -0.52370  -0.52322  -0.51821
 Alpha  occ. eigenvalues --   -0.51499  -0.51109  -0.50951  -0.49834  -0.49583
 Alpha  occ. eigenvalues --   -0.49162  -0.48794  -0.48219  -0.48104  -0.48046
 Alpha  occ. eigenvalues --   -0.47598  -0.47408  -0.46883  -0.46465  -0.46080
 Alpha  occ. eigenvalues --   -0.44941  -0.44621  -0.44040  -0.43857  -0.43239
 Alpha  occ. eigenvalues --   -0.42408  -0.42065  -0.41626  -0.41456  -0.41227
 Alpha  occ. eigenvalues --   -0.40866  -0.40420  -0.40022  -0.39876  -0.39579
 Alpha  occ. eigenvalues --   -0.39222  -0.39031  -0.38393  -0.37844  -0.37573
 Alpha  occ. eigenvalues --   -0.37327  -0.36728  -0.36550  -0.35657  -0.34865
 Alpha  occ. eigenvalues --   -0.34317  -0.33852  -0.31798  -0.30917  -0.29653
 Alpha  occ. eigenvalues --   -0.28873  -0.28480  -0.27515  -0.25000  -0.24535
 Alpha virt. eigenvalues --   -0.01334   0.00552   0.03683   0.03911   0.10275
 Alpha virt. eigenvalues --    0.11076   0.11490   0.12054   0.13215   0.13524
 Alpha virt. eigenvalues --    0.14268   0.14687   0.14865   0.15442   0.15612

 Mulliken charges:
               1
     1  C   -0.306035
     2  C   -0.306787
     3  C   -0.310731
     4  C   -0.058529
     5  C    0.056227
     6  C   -0.311463
     7  H    0.173748
     8  H    0.162981
     9  H    0.164921
    10  H    0.150108
    11  H    0.162794
    12  H    0.208265
    13  H    0.172100
    14  H    0.194130
    15  H    0.163227
    16  H    0.153441
    17  N   -0.433887
    18  C    0.071343
    19  C    0.065972
    20  C   -0.206910
    21  H    0.207275
    22  C   -0.209949
    23  H    0.245857
    24  C    0.454185
    25  H    0.190461
    26  H    0.211740
    27  N   -0.531452
    28  C   -0.178810
    29  H    0.170008
    30  H    0.240697
    31  C   -0.154300
    32  H    0.169154
    33  H    0.199792
    34  N   -0.817443
    35  S    1.254371
    36  O   -0.611118
    37  O   -0.610254
    38  C    0.094505
    39  C   -0.175886
    40  C   -0.188544
    41  C   -0.170122
    42  C   -0.163509
    43  C   -0.211982
    44  H    0.200523
    45  H    0.141992
    46  H    0.154236
    47  H    0.157767
    48  H    0.151405
    49  O   -0.547639
    50  H    0.450014
    51  C    0.729127
    52  O   -0.724329
    53  O   -0.718308
    54  H    0.446166
    55  C   -0.337126
    56  H    0.150656
    57  H    0.146464
    58  C   -0.096539
    59  H    0.141465
    60  H    0.146454
    61  C   -0.662601
    62  H    0.269357
    63  H    0.196380
    64  H    0.217319
    65  C   -0.295844
    66  H    0.142330
    67  H    0.147226
    68  C   -0.476973
    69  H    0.149727
    70  H    0.156562
    71  H    0.144254
    72  C   -0.332086
    73  H    0.187472
    74  H    0.164098
    75  C   -0.344851
    76  H    0.193322
    77  H    0.172391
 Sum of Mulliken charges =  -0.00000

 Dipole moment (field-independent basis, Debye):
    X=             -1.8477    Y=             -2.1196    Z=             -6.4923  Tot=              7.0751
 Quadrupole moment (field-independent basis, Debye-Ang):
   XX=           -204.1398   YY=           -222.9105   ZZ=           -220.2535
   XY=            -12.1134   XZ=             -4.8931   YZ=             10.4640

 Normal termination of Gaussian 16 at Thu Feb  7 18:21:05 2019.
