 Gaussian 16, Revision A.03,
 Gaussian 16:  ES64L-G16RevA.03 25-Dec-2016

 ------------------------------------------
 #p M062X/6-31G* em=gd3 force int=ultrafine
 ------------------------------------------

 -----
 Title
 -----
 Symbolic Z-matrix:
 Charge =  0 Multiplicity = 1

                         Standard orientation:
 ---------------------------------------------------------------------
 Center     Atomic      Atomic             Coordinates (Angstroms)
 Number     Number       Type             X           Y           Z
 ---------------------------------------------------------------------
      1          6           0       -4.868906    0.196127   -0.452016
      2          6           0       -4.958748   -1.095354   -1.270460
      3          6           0       -3.590775   -1.466912   -1.855808
      4          6           0       -2.586211   -1.610838   -0.716682
      5          6           0       -2.447279   -0.284820    0.085040
      6          6           0       -3.822279    0.085077    0.660995
      7          1           0       -3.647140   -2.393744   -2.438209
      8          1           0       -5.312303   -1.913549   -0.629494
      9          1           0       -5.686406   -0.987394   -2.081679
     10          1           0       -4.586786    1.021826   -1.120571
     11          1           0       -5.849895    0.444217   -0.033002
     12          1           0       -2.918066   -2.399245   -0.034844
     13          1           0       -2.208917    0.482962   -0.666659
     14          1           0       -4.123243   -0.669207    1.398968
     15          1           0       -3.718056    1.043827    1.182900
     16          1           0       -3.282960   -0.660590   -2.535667
     17          7           0       -1.230216   -2.011941   -1.160292
     18          6           0       -0.603586   -1.345086   -2.157359
     19          6           0       -0.486855   -2.760759   -0.311587
     20          6           0        0.750680   -1.388751   -2.325382
     21          1           0       -1.235681   -0.749458   -2.803277
     22          6           0        0.872176   -2.849696   -0.413032
     23          1           0       -1.031227   -3.243582    0.492969
     24          6           0        1.559936   -2.081670   -1.382469
     25          1           0        1.192295   -0.835792   -3.143980
     26          1           0        1.397139   -3.418352    0.341583
     27          7           0        2.897723   -1.998230   -1.391569
     28          6           0        3.679014   -2.478735   -0.244400
     29          1           0        3.614475   -3.567415   -0.160205
     30          1           0        3.282614   -2.024650    0.674560
     31          6           0        3.606788   -0.933819   -2.118900
     32          1           0        3.870356   -1.276161   -3.126932
     33          1           0        2.972250   -0.046144   -2.185850
     34          7           0       -1.318325   -0.275023    0.989093
     35         16           0       -1.291345   -1.184548    2.281367
     36          8           0       -2.324516   -2.243629    2.293555
     37          8           0        0.096979   -1.672599    2.504485
     38          6           0       -0.959748    2.843850   -0.144057
     39          6           0       -0.309056    2.156942   -1.176239
     40          6           0       -0.902332    2.071840   -2.433913
     41          6           0       -2.160642    2.628833   -2.667175
     42          6           0       -2.824919    3.280123   -1.630877
     43          6           0       -2.220979    3.387288   -0.380247
     44          1           0        0.638438    1.658904   -0.976476
     45          1           0       -0.380355    1.563106   -3.241512
     46          1           0       -2.621458    2.555950   -3.647822
     47          1           0       -3.811390    3.704799   -1.791405
     48          1           0       -2.737430    3.891533    0.433221
     49          8           0        0.272285    1.796031    1.667481
     50          1           0       -0.292623    1.031074    1.340337
     51          6           0        2.441474    0.615933    1.178893
     52          8           0        2.094327    0.193537    0.090235
     53          8           0        2.263570   -0.045802    2.313549
     54          1           0        1.539354   -0.721442    2.211298
     55          6           0        3.184224    1.918002    1.368991
     56          1           0        2.664275    2.459894    2.165356
     57          1           0        4.190016    1.689767    1.748115
     58          6           0       -0.322521    2.979434    1.222094
     59          1           0       -1.080641    3.347685    1.932523
     60          1           0        0.469331    3.743078    1.184083
     61          6           0       -1.598340   -0.102098    3.674969
     62          1           0       -0.851761    0.694183    3.622412
     63          1           0       -2.605473    0.307877    3.577337
     64          1           0       -1.498123   -0.673354    4.598735
     65          6           0        3.255557    2.747264    0.091853
     66          1           0        3.672287    2.137697   -0.718905
     67          1           0        2.237476    3.004196   -0.222407
     68          6           0        4.083198    4.016691    0.269603
     69          1           0        4.144423    4.585623   -0.662670
     70          1           0        3.645282    4.668904    1.032514
     71          1           0        5.104793    3.778058    0.584921
     72          6           0        5.093210   -1.989319   -0.543494
     73          1           0        5.685664   -1.879582    0.367087
     74          1           0        5.605048   -2.694627   -1.205977
     75          6           0        4.845746   -0.660250   -1.260941
     76          1           0        4.600507    0.113195   -0.528017
     77          1           0        5.697044   -0.321051   -1.854685
 ---------------------------------------------------------------------

 SCF Done:  E(RM062X) =  -1991.38623352     A.U. after   15 cycles

 The electronic state is 1-A.
 Alpha  occ. eigenvalues --  -90.10286 -19.63475 -19.60151 -19.59005 -19.58448
 Alpha  occ. eigenvalues --  -19.58307 -14.84782 -14.80452 -14.69309 -10.65625
 Alpha  occ. eigenvalues --  -10.63207 -10.62413 -10.61524 -10.59143 -10.59103
 Alpha  occ. eigenvalues --  -10.58964 -10.57821 -10.57401 -10.56771 -10.56682
 Alpha  occ. eigenvalues --  -10.55975 -10.55716 -10.55579 -10.55025 -10.54960
 Alpha  occ. eigenvalues --  -10.54903 -10.54631 -10.54585 -10.54515 -10.53886
 Alpha  occ. eigenvalues --  -10.53581 -10.53505 -10.53341 -10.53304 -10.52773
 Alpha  occ. eigenvalues --  -10.52621  -8.41245  -6.33482  -6.33391  -6.33310
 Alpha  occ. eigenvalues --   -1.19192  -1.17783  -1.12920  -1.10185  -1.09929
 Alpha  occ. eigenvalues --   -1.09099  -1.06059  -0.97517  -0.95320  -0.94750
 Alpha  occ. eigenvalues --   -0.92181  -0.89826  -0.88559  -0.88236  -0.85069
 Alpha  occ. eigenvalues --   -0.84886  -0.83676  -0.83521  -0.83294  -0.80095
 Alpha  occ. eigenvalues --   -0.79295  -0.76322  -0.75624  -0.74683  -0.70934
 Alpha  occ. eigenvalues --   -0.70224  -0.69226  -0.68680  -0.68341  -0.68066
 Alpha  occ. eigenvalues --   -0.65922  -0.64742  -0.63918  -0.63453  -0.61597
 Alpha  occ. eigenvalues --   -0.60257  -0.59367  -0.59058  -0.58349  -0.56155
 Alpha  occ. eigenvalues --   -0.55536  -0.55229  -0.55121  -0.54251  -0.53790
 Alpha  occ. eigenvalues --   -0.53445  -0.53054  -0.52550  -0.51908  -0.51671
 Alpha  occ. eigenvalues --   -0.51088  -0.50961  -0.50612  -0.50065  -0.49829
 Alpha  occ. eigenvalues --   -0.49623  -0.49533  -0.48787  -0.48321  -0.48000
 Alpha  occ. eigenvalues --   -0.47796  -0.47199  -0.47048  -0.46975  -0.45867
 Alpha  occ. eigenvalues --   -0.45645  -0.45212  -0.43943  -0.43668  -0.43448
 Alpha  occ. eigenvalues --   -0.42824  -0.42726  -0.42180  -0.42041  -0.41860
 Alpha  occ. eigenvalues --   -0.41177  -0.40905  -0.40529  -0.39889  -0.39592
 Alpha  occ. eigenvalues --   -0.39366  -0.39284  -0.38950  -0.38399  -0.38009
 Alpha  occ. eigenvalues --   -0.37334  -0.36235  -0.35823  -0.35335  -0.35161
 Alpha  occ. eigenvalues --   -0.34313  -0.33035  -0.32012  -0.31651  -0.31450
 Alpha  occ. eigenvalues --   -0.29916  -0.28855  -0.28323  -0.27364  -0.25348
 Alpha virt. eigenvalues --   -0.01040   0.00675   0.03175   0.03736   0.08923
 Alpha virt. eigenvalues --    0.10170   0.10926   0.11810   0.12955   0.13550
 Alpha virt. eigenvalues --    0.13844   0.14301   0.14990   0.15480   0.15840

 Mulliken charges:
               1
     1  C   -0.303931
     2  C   -0.304193
     3  C   -0.309686
     4  C   -0.072706
     5  C    0.065522
     6  C   -0.304843
     7  H    0.166635
     8  H    0.161118
     9  H    0.159168
    10  H    0.145453
    11  H    0.156864
    12  H    0.211144
    13  H    0.140824
    14  H    0.179752
    15  H    0.150185
    16  H    0.149933
    17  N   -0.423935
    18  C    0.098301
    19  C    0.085979
    20  C   -0.226853
    21  H    0.204637
    22  C   -0.226551
    23  H    0.262440
    24  C    0.427326
    25  H    0.187723
    26  H    0.207598
    27  N   -0.527563
    28  C   -0.158563
    29  H    0.178279
    30  H    0.198528
    31  C   -0.146213
    32  H    0.169590
    33  H    0.194489
    34  N   -0.761669
    35  S    1.248659
    36  O   -0.643183
    37  O   -0.669490
    38  C    0.049568
    39  C   -0.176065
    40  C   -0.188160
    41  C   -0.169511
    42  C   -0.161225
    43  C   -0.199136
    44  H    0.204728
    45  H    0.139346
    46  H    0.156788
    47  H    0.162164
    48  H    0.158035
    49  O   -0.716094
    50  H    0.484677
    51  C    0.656933
    52  O   -0.521160
    53  O   -0.646989
    54  H    0.484723
    55  C   -0.371623
    56  H    0.202623
    57  H    0.165612
    58  C   -0.064040
    59  H    0.127362
    60  H    0.149311
    61  C   -0.660824
    62  H    0.225503
    63  H    0.186539
    64  H    0.206598
    65  C   -0.289149
    66  H    0.145552
    67  H    0.162415
    68  C   -0.480367
    69  H    0.159232
    70  H    0.158465
    71  H    0.151547
    72  C   -0.336772
    73  H    0.184445
    74  H    0.169836
    75  C   -0.335817
    76  H    0.181214
    77  H    0.172946
 Sum of Mulliken charges =  -0.00000

 Dipole moment (field-independent basis, Debye):
    X=              1.5584    Y=             -0.1726    Z=             -6.6596  Tot=              6.8417
 Quadrupole moment (field-independent basis, Debye-Ang):
   XX=           -199.2676   YY=           -222.4741   ZZ=           -222.5742
   XY=            -11.6511   XZ=             -0.0857   YZ=             12.7109

 Normal termination of Gaussian 16 at Thu Feb  7 22:51:20 2019.
