 Gaussian 16, Revision A.03,
 Gaussian 16:  ES64L-G16RevA.03 25-Dec-2016

 ------------------------------------------
 #p M062X/6-31G* em=gd3 force int=ultrafine
 ------------------------------------------

 -----
 Title
 -----
 Symbolic Z-matrix:
 Charge =  0 Multiplicity = 1

                         Standard orientation:
 ---------------------------------------------------------------------
 Center     Atomic      Atomic             Coordinates (Angstroms)
 Number     Number       Type             X           Y           Z
 ---------------------------------------------------------------------
      1          6           0       -4.855703    0.342256   -0.488972
      2          6           0       -4.983387   -0.933519   -1.326839
      3          6           0       -3.627139   -1.337241   -1.919044
      4          6           0       -2.634258   -1.543573   -0.780436
      5          6           0       -2.462686   -0.249110    0.060995
      6          6           0       -3.823331    0.176056    0.629855
      7          1           0       -3.712262   -2.245094   -2.526838
      8          1           0       -5.359061   -1.749862   -0.696222
      9          1           0       -5.708475   -0.793014   -2.135103
     10          1           0       -4.541266    1.168055   -1.142984
     11          1           0       -5.830350    0.617580   -0.072197
     12          1           0       -2.988680   -2.342974   -0.121988
     13          1           0       -2.175026    0.528262   -0.663908
     14          1           0       -4.162110   -0.566538    1.362297
     15          1           0       -3.677082    1.126552    1.157345
     16          1           0       -3.288769   -0.523454   -2.575261
     17          7           0       -1.281857   -1.960769   -1.225321
     18          6           0       -0.631306   -1.277772   -2.196797
     19          6           0       -0.557084   -2.736611   -0.384192
     20          6           0        0.724373   -1.337008   -2.349771
     21          1           0       -1.244390   -0.652903   -2.833316
     22          6           0        0.802037   -2.844524   -0.472728
     23          1           0       -1.116676   -3.234391    0.400436
     24          6           0        1.513740   -2.065270   -1.416184
     25          1           0        1.183700   -0.767079   -3.146902
     26          1           0        1.308677   -3.439455    0.274145
     27          7           0        2.853294   -2.000912   -1.409155
     28          6           0        3.613409   -2.501937   -0.255381
     29          1           0        3.523964   -3.588454   -0.172165
     30          1           0        3.221101   -2.038308    0.660604
     31          6           0        3.584435   -0.927283   -2.103674
     32          1           0        3.854515   -1.248762   -3.116505
     33          1           0        2.963294   -0.029349   -2.155255
     34          7           0       -1.349262   -0.327816    0.973160
     35         16           0       -1.366750   -1.217534    2.282257
     36          8           0       -2.475268   -2.194544    2.319417
     37          8           0       -0.006478   -1.785467    2.481504
     38          6           0       -0.797869    2.789053   -0.083678
     39          6           0       -0.202546    2.136712   -1.171519
     40          6           0       -0.838451    2.137960   -2.411719
     41          6           0       -2.083311    2.748415   -2.573309
     42          6           0       -2.688207    3.372330   -1.485273
     43          6           0       -2.041255    3.392821   -0.252941
     44          1           0        0.733655    1.598717   -1.031142
     45          1           0       -0.363081    1.654016   -3.262676
     46          1           0       -2.580686    2.737309   -3.538481
     47          1           0       -3.662204    3.840362   -1.588960
     48          1           0       -2.508245    3.871605    0.604202
     49          8           0        0.297247    1.556879    1.690160
     50          1           0       -0.320882    0.844609    1.297167
     51          6           0        2.425282    0.567651    1.165919
     52          8           0        2.094802    0.161436    0.067230
     53          8           0        2.276071   -0.138023    2.283409
     54          1           0        1.538538   -0.793269    2.176895
     55          6           0        3.148991    1.877299    1.383369
     56          1           0        2.612983    2.415066    2.172794
     57          1           0        4.142497    1.644764    1.789151
     58          6           0       -0.146737    2.809606    1.281939
     59          1           0       -0.858680    3.236113    2.006372
     60          1           0        0.729828    3.474948    1.270787
     61          6           0       -1.556629   -0.082243    3.656682
     62          1           0       -0.751928    0.649601    3.552740
     63          1           0       -2.530437    0.405456    3.580836
     64          1           0       -1.465826   -0.633210    4.593496
     65          6           0        3.277123    2.723837    0.118364
     66          1           0        3.665005    2.103720   -0.698258
     67          1           0        2.286166    3.057378   -0.211413
     68          6           0        4.185302    3.932616    0.333063
     69          1           0        4.316809    4.505047   -0.589766
     70          1           0        3.773937    4.608495    1.090317
     71          1           0        5.176498    3.616710    0.676069
     72          6           0        5.039004   -2.040864   -0.542581
     73          1           0        5.636043   -1.968237    0.368724
     74          1           0        5.531086   -2.741176   -1.225142
     75          6           0        4.818522   -0.690449   -1.227218
     76          1           0        4.575952    0.065648   -0.475444
     77          1           0        5.679727   -0.344969   -1.802709
 ---------------------------------------------------------------------

 SCF Done:  E(RM062X) =  -1991.37951512     A.U. after   15 cycles

 The electronic state is 1-A.
 Alpha  occ. eigenvalues --  -90.10226 -19.63688 -19.60216 -19.58396 -19.58301
 Alpha  occ. eigenvalues --  -19.58243 -14.84807 -14.80407 -14.69264 -10.65953
 Alpha  occ. eigenvalues --  -10.63220 -10.62451 -10.61669 -10.59285 -10.59047
 Alpha  occ. eigenvalues --  -10.58857 -10.57833 -10.57253 -10.56774 -10.56734
 Alpha  occ. eigenvalues --  -10.55915 -10.55680 -10.55644 -10.55122 -10.55050
 Alpha  occ. eigenvalues --  -10.54955 -10.54643 -10.54623 -10.54517 -10.54014
 Alpha  occ. eigenvalues --  -10.53665 -10.53612 -10.53612 -10.53230 -10.52988
 Alpha  occ. eigenvalues --  -10.52625  -8.41175  -6.33411  -6.33322  -6.33244
 Alpha  occ. eigenvalues --   -1.19326  -1.17668  -1.12931  -1.10118  -1.09916
 Alpha  occ. eigenvalues --   -1.09041  -1.05977  -0.97615  -0.95397  -0.94745
 Alpha  occ. eigenvalues --   -0.92211  -0.89817  -0.88572  -0.88446  -0.85104
 Alpha  occ. eigenvalues --   -0.84791  -0.83750  -0.83575  -0.83282  -0.79973
 Alpha  occ. eigenvalues --   -0.79494  -0.76308  -0.75603  -0.74608  -0.70968
 Alpha  occ. eigenvalues --   -0.70330  -0.69433  -0.68650  -0.68354  -0.68126
 Alpha  occ. eigenvalues --   -0.66036  -0.64779  -0.63922  -0.63552  -0.61621
 Alpha  occ. eigenvalues --   -0.60300  -0.59392  -0.59140  -0.58359  -0.56189
 Alpha  occ. eigenvalues --   -0.55827  -0.55344  -0.55189  -0.54593  -0.53938
 Alpha  occ. eigenvalues --   -0.53491  -0.53056  -0.52663  -0.51806  -0.51632
 Alpha  occ. eigenvalues --   -0.51066  -0.50942  -0.50637  -0.49982  -0.49871
 Alpha  occ. eigenvalues --   -0.49772  -0.49519  -0.48761  -0.48315  -0.48059
 Alpha  occ. eigenvalues --   -0.47644  -0.47281  -0.47104  -0.47008  -0.45781
 Alpha  occ. eigenvalues --   -0.45482  -0.45144  -0.44003  -0.43772  -0.43500
 Alpha  occ. eigenvalues --   -0.43167  -0.42845  -0.42131  -0.41950  -0.41784
 Alpha  occ. eigenvalues --   -0.41259  -0.40934  -0.40513  -0.39900  -0.39696
 Alpha  occ. eigenvalues --   -0.39441  -0.39393  -0.39200  -0.38406  -0.38133
 Alpha  occ. eigenvalues --   -0.37456  -0.36322  -0.35839  -0.35339  -0.35129
 Alpha  occ. eigenvalues --   -0.34184  -0.32937  -0.31936  -0.31714  -0.31048
 Alpha  occ. eigenvalues --   -0.30004  -0.28705  -0.28341  -0.27258  -0.25368
 Alpha virt. eigenvalues --   -0.01089   0.00690   0.03084   0.03653   0.08783
 Alpha virt. eigenvalues --    0.10139   0.10970   0.11760   0.12974   0.13459
 Alpha virt. eigenvalues --    0.13734   0.14320   0.15019   0.15420   0.15868

 Mulliken charges:
               1
     1  C   -0.303755
     2  C   -0.304673
     3  C   -0.309689
     4  C   -0.069972
     5  C    0.070706
     6  C   -0.304916
     7  H    0.167292
     8  H    0.161774
     9  H    0.159412
    10  H    0.144431
    11  H    0.157377
    12  H    0.207773
    13  H    0.140167
    14  H    0.183423
    15  H    0.149913
    16  H    0.149775
    17  N   -0.424713
    18  C    0.096733
    19  C    0.096122
    20  C   -0.226513
    21  H    0.204400
    22  C   -0.228210
    23  H    0.257018
    24  C    0.425949
    25  H    0.187362
    26  H    0.207973
    27  N   -0.525546
    28  C   -0.159384
    29  H    0.177985
    30  H    0.197897
    31  C   -0.145108
    32  H    0.169452
    33  H    0.193560
    34  N   -0.777429
    35  S    1.243613
    36  O   -0.634072
    37  O   -0.666444
    38  C    0.052803
    39  C   -0.177665
    40  C   -0.188811
    41  C   -0.169642
    42  C   -0.160260
    43  C   -0.199889
    44  H    0.203724
    45  H    0.140131
    46  H    0.157455
    47  H    0.162637
    48  H    0.159085
    49  O   -0.718284
    50  H    0.487189
    51  C    0.671128
    52  O   -0.520972
    53  O   -0.646595
    54  H    0.480590
    55  C   -0.376055
    56  H    0.200920
    57  H    0.168527
    58  C   -0.062261
    59  H    0.125285
    60  H    0.140044
    61  C   -0.666795
    62  H    0.234512
    63  H    0.184214
    64  H    0.205115
    65  C   -0.292139
    66  H    0.147934
    67  H    0.162811
    68  C   -0.480745
    69  H    0.160291
    70  H    0.159147
    71  H    0.152410
    72  C   -0.335317
    73  H    0.184037
    74  H    0.169351
    75  C   -0.335266
    76  H    0.179157
    77  H    0.172514
 Sum of Mulliken charges =  -0.00000

 Dipole moment (field-independent basis, Debye):
    X=              1.7623    Y=              0.2951    Z=             -6.8046  Tot=              7.0353
 Quadrupole moment (field-independent basis, Debye-Ang):
   XX=           -200.7432   YY=           -222.6292   ZZ=           -222.9924
   XY=            -11.6158   XZ=              1.5051   YZ=             13.3767

 Normal termination of Gaussian 16 at Thu Feb  7 21:10:40 2019.
