 Gaussian 16, Revision A.03,
 Gaussian 16:  ES64L-G16RevA.03 25-Dec-2016

 ------------------------------------------
 #p M062X/6-31G* em=gd3 force int=ultrafine
 ------------------------------------------

 -----
 Title
 -----
 Symbolic Z-matrix:
 Charge =  0 Multiplicity = 1

                         Standard orientation:
 ---------------------------------------------------------------------
 Center     Atomic      Atomic             Coordinates (Angstroms)
 Number     Number       Type             X           Y           Z
 ---------------------------------------------------------------------
      1          6           0       -4.782600    0.430470   -0.528627
      2          6           0       -4.977908   -0.857994   -1.333423
      3          6           0       -3.654878   -1.317745   -1.958439
      4          6           0       -2.637332   -1.530304   -0.843713
      5          6           0       -2.396628   -0.216622   -0.055535
      6          6           0       -3.715680    0.265255    0.558398
      7          1           0       -3.784524   -2.240214   -2.534466
      8          1           0       -5.360172   -1.649731   -0.675787
      9          1           0       -5.723804   -0.708064   -2.120248
     10          1           0       -4.476574    1.234835   -1.210248
     11          1           0       -5.730639    0.736766   -0.074602
     12          1           0       -3.014484   -2.288079   -0.150170
     13          1           0       -2.080222    0.539187   -0.785755
     14          1           0       -4.056022   -0.454266    1.310700
     15          1           0       -3.529291    1.221453    1.058875
     16          1           0       -3.308798   -0.535847   -2.647946
     17          7           0       -1.317690   -2.017428   -1.296779
     18          6           0       -0.633891   -1.334840   -2.253602
     19          6           0       -0.619476   -2.809880   -0.440011
     20          6           0        0.722114   -1.384494   -2.352121
     21          1           0       -1.228748   -0.715911   -2.914028
     22          6           0        0.737979   -2.894347   -0.462640
     23          1           0       -1.208319   -3.316356    0.317156
     24          6           0        1.477684   -2.077379   -1.358996
     25          1           0        1.210774   -0.814902   -3.130918
     26          1           0        1.225187   -3.485161    0.299933
     27          7           0        2.798662   -1.967217   -1.275956
     28          6           0        3.528886   -2.412901   -0.079210
     29          1           0        3.416446   -3.491200    0.062925
     30          1           0        3.128002   -1.866807    0.787466
     31          6           0        3.523789   -0.897327   -1.974912
     32          1           0        3.770679   -1.216238   -2.994987
     33          1           0        2.891528   -0.005810   -2.003116
     34          7           0       -1.275063   -0.315887    0.865205
     35         16           0       -1.325016   -1.165634    2.255417
     36          8           0       -2.525674   -2.007417    2.238825
     37          8           0       -0.032291   -1.828429    2.446728
     38          6           0       -0.602742    2.688565    0.035567
     39          6           0       -0.130065    2.203194   -1.193952
     40          6           0       -0.913637    2.294843   -2.342745
     41          6           0       -2.186551    2.863980   -2.297405
     42          6           0       -2.669497    3.344083   -1.083305
     43          6           0       -1.879692    3.256810    0.063476
     44          1           0        0.830274    1.700788   -1.218842
     45          1           0       -0.519974    1.924334   -3.287025
     46          1           0       -2.791006    2.938518   -3.197218
     47          1           0       -3.657908    3.792004   -1.026793
     48          1           0       -2.264930    3.645811    1.004099
     49          8           0        0.704349    1.546945    1.889238
     50          1           0       -0.294216   -0.066849    0.552678
     51          6           0        1.848561    0.824080    1.251825
     52          8           0        1.450009    0.216036    0.153559
     53          8           0        2.234141   -0.058877    2.289438
     54          1           0        1.542035   -0.744176    2.309133
     55          6           0        3.046241    1.803383    1.134568
     56          1           0        2.994360    2.518753    1.965207
     57          1           0        3.944026    1.201370    1.323190
     58          6           0        0.236033    2.736156    1.316587
     59          1           0       -0.396929    3.197275    2.086015
     60          1           0        1.068257    3.436669    1.152290
     61          6           0       -1.479791    0.044508    3.548285
     62          1           0       -0.612505    0.703491    3.451142
     63          1           0       -2.414459    0.587069    3.395871
     64          1           0       -1.487988   -0.486793    4.501427
     65          6           0        3.221566    2.538578   -0.191122
     66          1           0        3.250772    1.806007   -1.006470
     67          1           0        2.362493    3.181089   -0.409114
     68          6           0        4.494400    3.383396   -0.201082
     69          1           0        4.631429    3.902462   -1.154737
     70          1           0        4.463963    4.139218    0.590949
     71          1           0        5.379121    2.759985   -0.024153
     72          6           0        4.964442   -2.001649   -0.385878
     73          1           0        5.563412   -1.907146    0.521633
     74          1           0        5.437872   -2.740209   -1.042168
     75          6           0        4.771435   -0.670347   -1.115922
     76          1           0        4.553304    0.111826   -0.384352
     77          1           0        5.635619   -0.366191   -1.710208
 ---------------------------------------------------------------------

 SCF Done:  E(RM062X) =  -1991.35854725     A.U. after   14 cycles

 The electronic state is 1-A.
 Alpha  occ. eigenvalues --  -90.14173 -19.61779 -19.61756 -19.58690 -19.56697
 Alpha  occ. eigenvalues --  -19.51260 -14.85168 -14.80447 -14.75747 -10.63419
 Alpha  occ. eigenvalues --  -10.62787 -10.62252 -10.62189 -10.60727 -10.59347
 Alpha  occ. eigenvalues --  -10.58464 -10.57997 -10.57946 -10.57157 -10.56893
 Alpha  occ. eigenvalues --  -10.56691 -10.55658 -10.55603 -10.55114 -10.54840
 Alpha  occ. eigenvalues --  -10.54838 -10.54788 -10.54723 -10.54572 -10.54398
 Alpha  occ. eigenvalues --  -10.54321 -10.54320 -10.53074 -10.51520 -10.51461
 Alpha  occ. eigenvalues --  -10.49700  -8.45150  -6.37367  -6.37344  -6.37187
 Alpha  occ. eigenvalues --   -1.21997  -1.13594  -1.13498  -1.10252  -1.09345
 Alpha  occ. eigenvalues --   -1.05880  -1.01737  -0.99320  -0.95744  -0.94990
 Alpha  occ. eigenvalues --   -0.93493  -0.90299  -0.88754  -0.85905  -0.85783
 Alpha  occ. eigenvalues --   -0.84824  -0.84707  -0.84237  -0.83056  -0.82694
 Alpha  occ. eigenvalues --   -0.76666  -0.76280  -0.75832  -0.74371  -0.72790
 Alpha  occ. eigenvalues --   -0.71644  -0.68327  -0.68232  -0.67940  -0.67206
 Alpha  occ. eigenvalues --   -0.66748  -0.65230  -0.64868  -0.63526  -0.60560
 Alpha  occ. eigenvalues --   -0.60403  -0.59784  -0.59019  -0.57805  -0.57595
 Alpha  occ. eigenvalues --   -0.57176  -0.56437  -0.55781  -0.55169  -0.54194
 Alpha  occ. eigenvalues --   -0.53544  -0.52657  -0.52456  -0.52430  -0.51906
 Alpha  occ. eigenvalues --   -0.51550  -0.51026  -0.50767  -0.49876  -0.49560
 Alpha  occ. eigenvalues --   -0.49161  -0.48834  -0.48206  -0.48137  -0.48020
 Alpha  occ. eigenvalues --   -0.47671  -0.47463  -0.46911  -0.46437  -0.46103
 Alpha  occ. eigenvalues --   -0.44883  -0.44737  -0.44142  -0.43870  -0.43261
 Alpha  occ. eigenvalues --   -0.42509  -0.42135  -0.41409  -0.41330  -0.41119
 Alpha  occ. eigenvalues --   -0.40902  -0.40480  -0.39994  -0.39816  -0.39322
 Alpha  occ. eigenvalues --   -0.39257  -0.39068  -0.38445  -0.37954  -0.37594
 Alpha  occ. eigenvalues --   -0.37389  -0.36741  -0.36562  -0.35737  -0.34903
 Alpha  occ. eigenvalues --   -0.34387  -0.33961  -0.31674  -0.31093  -0.29771
 Alpha  occ. eigenvalues --   -0.28881  -0.28602  -0.27644  -0.24854  -0.24415
 Alpha virt. eigenvalues --   -0.01519   0.00407   0.03554   0.03757   0.10141
 Alpha virt. eigenvalues --    0.10997   0.11652   0.12193   0.13177   0.13514
 Alpha virt. eigenvalues --    0.14211   0.14605   0.14763   0.15232   0.15601

 Mulliken charges:
               1
     1  C   -0.306261
     2  C   -0.307107
     3  C   -0.309315
     4  C   -0.060138
     5  C    0.056801
     6  C   -0.311564
     7  H    0.173957
     8  H    0.162814
     9  H    0.165478
    10  H    0.151061
    11  H    0.163299
    12  H    0.208980
    13  H    0.173000
    14  H    0.193019
    15  H    0.163600
    16  H    0.154208
    17  N   -0.430610
    18  C    0.067548
    19  C    0.063691
    20  C   -0.202034
    21  H    0.206514
    22  C   -0.209105
    23  H    0.245364
    24  C    0.446135
    25  H    0.191943
    26  H    0.211559
    27  N   -0.526250
    28  C   -0.171264
    29  H    0.169772
    30  H    0.230153
    31  C   -0.154706
    32  H    0.165953
    33  H    0.205193
    34  N   -0.815959
    35  S    1.253479
    36  O   -0.612151
    37  O   -0.606650
    38  C    0.085195
    39  C   -0.183641
    40  C   -0.189681
    41  C   -0.171082
    42  C   -0.163697
    43  C   -0.212155
    44  H    0.210552
    45  H    0.140633
    46  H    0.154899
    47  H    0.158597
    48  H    0.152485
    49  O   -0.550221
    50  H    0.448819
    51  C    0.724940
    52  O   -0.722421
    53  O   -0.718023
    54  H    0.444883
    55  C   -0.338484
    56  H    0.148967
    57  H    0.150955
    58  C   -0.091717
    59  H    0.140144
    60  H    0.147710
    61  C   -0.663243
    62  H    0.273270
    63  H    0.196275
    64  H    0.217547
    65  C   -0.293314
    66  H    0.136435
    67  H    0.146522
    68  C   -0.473384
    69  H    0.148999
    70  H    0.154831
    71  H    0.144624
    72  C   -0.331871
    73  H    0.187238
    74  H    0.163008
    75  C   -0.343301
    76  H    0.197171
    77  H    0.171128
 Sum of Mulliken charges =  -0.00000

 Dipole moment (field-independent basis, Debye):
    X=             -2.5289    Y=             -1.9016    Z=             -6.3664  Tot=              7.1093
 Quadrupole moment (field-independent basis, Debye-Ang):
   XX=           -205.6677   YY=           -222.8664   ZZ=           -219.8640
   XY=            -12.3443   XZ=             -5.3418   YZ=             10.0266

 Normal termination of Gaussian 16 at Thu Feb  7 15:01:11 2019.
