 Gaussian 16, Revision A.03,
 Gaussian 16:  ES64L-G16RevA.03 25-Dec-2016

 ------------------------------------------
 #p M062X/6-31G* em=gd3 force int=ultrafine
 ------------------------------------------

 -----
 Title
 -----
 Symbolic Z-matrix:
 Charge =  0 Multiplicity = 1

                         Standard orientation:
 ---------------------------------------------------------------------
 Center     Atomic      Atomic             Coordinates (Angstroms)
 Number     Number       Type             X           Y           Z
 ---------------------------------------------------------------------
      1          6           0       -4.816560    0.465366   -0.523134
      2          6           0       -5.018243   -0.847203   -1.286476
      3          6           0       -3.697896   -1.331507   -1.897690
      4          6           0       -2.677037   -1.512652   -0.780048
      5          6           0       -2.434678   -0.178295   -0.030585
      6          6           0       -3.750873    0.328043    0.569285
      7          1           0       -3.830859   -2.271207   -2.444266
      8          1           0       -5.403536   -1.615926   -0.603773
      9          1           0       -5.763993   -0.719540   -2.077383
     10          1           0       -4.506295    1.246501   -1.229874
     11          1           0       -5.763266    0.790425   -0.079559
     12          1           0       -3.051416   -2.251188   -0.064317
     13          1           0       -2.115474    0.555508   -0.781689
     14          1           0       -4.094846   -0.365899    1.343260
     15          1           0       -3.559267    1.298005    1.040813
     16          1           0       -3.350399   -0.573082   -2.612136
     17          7           0       -1.360348   -2.012590   -1.227460
     18          6           0       -0.680216   -1.355678   -2.205167
     19          6           0       -0.661210   -2.797058   -0.364701
     20          6           0        0.673226   -1.426216   -2.321668
     21          1           0       -1.275316   -0.739050   -2.867304
     22          6           0        0.694069   -2.905148   -0.408012
     23          1           0       -1.245302   -3.278396    0.412190
     24          6           0        1.433730   -2.120002   -1.333094
     25          1           0        1.159397   -0.874868   -3.115241
     26          1           0        1.183470   -3.489177    0.358333
     27          7           0        2.757923   -2.039696   -1.279087
     28          6           0        3.500186   -2.506773   -0.098357
     29          1           0        3.371021   -3.584099    0.037702
     30          1           0        3.123963   -1.959314    0.778241
     31          6           0        3.494051   -0.980285   -1.985546
     32          1           0        3.735136   -1.307087   -3.004663
     33          1           0        2.875680   -0.079033   -2.009665
     34          7           0       -1.312643   -0.250967    0.893445
     35         16           0       -1.342269   -1.073111    2.305624
     36          8           0       -2.570345   -1.872517    2.334608
     37          8           0       -0.066825   -1.773179    2.471357
     38          6           0       -0.549262    2.656036   -0.057255
     39          6           0       -0.075880    2.115910   -1.263314
     40          6           0       -0.847113    2.182976   -2.422603
     41          6           0       -2.106911    2.781506   -2.411536
     42          6           0       -2.589236    3.318447   -1.220690
     43          6           0       -1.812981    3.254848   -0.063218
     44          1           0        0.874585    1.592395   -1.256248
     45          1           0       -0.452985    1.768922   -3.348703
     46          1           0       -2.700992    2.835989   -3.319661
     47          1           0       -3.566892    3.791693   -1.191392
     48          1           0       -2.198849    3.685373    0.858790
     49          8           0        0.738907    1.532569    1.819516
     50          1           0       -0.346117   -0.017895    0.568576
     51          6           0        1.913692    0.809377    1.215931
     52          8           0        1.550544    0.195385    0.114491
     53          8           0        2.268208   -0.064075    2.273735
     54          1           0        1.568947   -0.742809    2.281294
     55          6           0        3.099063    1.803984    1.133940
     56          1           0        3.008501    2.520980    1.960165
     57          1           0        4.004324    1.222632    1.349120
     58          6           0        0.272703    2.716650    1.235156
     59          1           0       -0.375235    3.177991    1.992561
     60          1           0        1.102260    3.422847    1.079414
     61          6           0       -1.417165    0.168367    3.575253
     62          1           0       -0.528931    0.792137    3.440396
     63          1           0       -2.336124    0.740966    3.438614
     64          1           0       -1.415886   -0.344739    4.538405
     65          6           0        3.292182    2.541572   -0.188439
     66          1           0        3.476308    1.813404   -0.987361
     67          1           0        2.382086    3.073590   -0.484851
     68          6           0        4.449803    3.535711   -0.107726
     69          1           0        4.615768    4.049309   -1.059697
     70          1           0        4.250523    4.297919    0.653929
     71          1           0        5.381459    3.031249    0.172734
     72          6           0        4.936538   -2.114202   -0.423575
     73          1           0        5.552622   -2.042174    0.474422
     74          1           0        5.387263   -2.849284   -1.099717
     75          6           0        4.745189   -0.770056   -1.128402
     76          1           0        4.524024   -0.004258   -0.380105
     77          1           0        5.607467   -0.454059   -1.719251
 ---------------------------------------------------------------------

 SCF Done:  E(RM062X) =  -1991.35758582     A.U. after   14 cycles

 The electronic state is 1-A.
 Alpha  occ. eigenvalues --  -90.14412 -19.61994 -19.61943 -19.58560 -19.56650
 Alpha  occ. eigenvalues --  -19.50940 -14.85250 -14.80374 -14.76260 -10.63393
 Alpha  occ. eigenvalues --  -10.62783 -10.62256 -10.62088 -10.60872 -10.59556
 Alpha  occ. eigenvalues --  -10.58265 -10.57981 -10.57934 -10.57182 -10.56897
 Alpha  occ. eigenvalues --  -10.56777 -10.55747 -10.55736 -10.55027 -10.54914
 Alpha  occ. eigenvalues --  -10.54879 -10.54770 -10.54653 -10.54617 -10.54451
 Alpha  occ. eigenvalues --  -10.54426 -10.54351 -10.53002 -10.51341 -10.51302
 Alpha  occ. eigenvalues --  -10.49543  -8.45388  -6.37608  -6.37579  -6.37422
 Alpha  occ. eigenvalues --   -1.22221  -1.13622  -1.13291  -1.10474  -1.09277
 Alpha  occ. eigenvalues --   -1.05763  -1.02015  -0.99191  -0.95825  -0.95007
 Alpha  occ. eigenvalues --   -0.93547  -0.90321  -0.88756  -0.86095  -0.85603
 Alpha  occ. eigenvalues --   -0.84835  -0.84765  -0.84124  -0.83067  -0.82838
 Alpha  occ. eigenvalues --   -0.76695  -0.76122  -0.75799  -0.74272  -0.72951
 Alpha  occ. eigenvalues --   -0.71737  -0.68309  -0.68170  -0.67923  -0.67333
 Alpha  occ. eigenvalues --   -0.66672  -0.65303  -0.64843  -0.63528  -0.60511
 Alpha  occ. eigenvalues --   -0.60388  -0.59714  -0.59321  -0.57766  -0.57672
 Alpha  occ. eigenvalues --   -0.57254  -0.56470  -0.55817  -0.55146  -0.54238
 Alpha  occ. eigenvalues --   -0.53599  -0.52752  -0.52562  -0.52502  -0.51931
 Alpha  occ. eigenvalues --   -0.51577  -0.50949  -0.50548  -0.49918  -0.49445
 Alpha  occ. eigenvalues --   -0.49140  -0.48920  -0.48215  -0.48124  -0.47905
 Alpha  occ. eigenvalues --   -0.47748  -0.47519  -0.46995  -0.46345  -0.46069
 Alpha  occ. eigenvalues --   -0.44967  -0.44731  -0.44222  -0.43823  -0.43276
 Alpha  occ. eigenvalues --   -0.42580  -0.42178  -0.41299  -0.41218  -0.41017
 Alpha  occ. eigenvalues --   -0.40869  -0.40546  -0.39984  -0.39764  -0.39242
 Alpha  occ. eigenvalues --   -0.39215  -0.39102  -0.38403  -0.38106  -0.37706
 Alpha  occ. eigenvalues --   -0.37345  -0.36710  -0.36482  -0.35876  -0.34940
 Alpha  occ. eigenvalues --   -0.34411  -0.34068  -0.31727  -0.31206  -0.29794
 Alpha  occ. eigenvalues --   -0.28871  -0.28600  -0.27705  -0.24508  -0.24174
 Alpha virt. eigenvalues --   -0.01492   0.00382   0.03507   0.03723   0.10119
 Alpha virt. eigenvalues --    0.10837   0.11555   0.12314   0.13144   0.13396
 Alpha virt. eigenvalues --    0.14219   0.14407   0.14741   0.15268   0.15588

 Mulliken charges:
               1
     1  C   -0.306328
     2  C   -0.307358
     3  C   -0.309390
     4  C   -0.059712
     5  C    0.055536
     6  C   -0.310516
     7  H    0.174534
     8  H    0.163047
     9  H    0.166035
    10  H    0.150657
    11  H    0.164153
    12  H    0.208360
    13  H    0.174259
    14  H    0.194678
    15  H    0.163382
    16  H    0.155041
    17  N   -0.432490
    18  C    0.068763
    19  C    0.065812
    20  C   -0.202146
    21  H    0.205810
    22  C   -0.210510
    23  H    0.244103
    24  C    0.446951
    25  H    0.192403
    26  H    0.211234
    27  N   -0.524502
    28  C   -0.169419
    29  H    0.169206
    30  H    0.226814
    31  C   -0.153153
    32  H    0.163822
    33  H    0.206974
    34  N   -0.809947
    35  S    1.249976
    36  O   -0.608514
    37  O   -0.602327
    38  C    0.077658
    39  C   -0.188443
    40  C   -0.190629
    41  C   -0.172224
    42  C   -0.164192
    43  C   -0.210851
    44  H    0.218230
    45  H    0.140247
    46  H    0.154959
    47  H    0.158520
    48  H    0.152265
    49  O   -0.556868
    50  H    0.445143
    51  C    0.720739
    52  O   -0.718491
    53  O   -0.716460
    54  H    0.440748
    55  C   -0.338037
    56  H    0.147361
    57  H    0.150819
    58  C   -0.087562
    59  H    0.137702
    60  H    0.148765
    61  C   -0.663964
    62  H    0.276493
    63  H    0.197085
    64  H    0.218474
    65  C   -0.289970
    66  H    0.133827
    67  H    0.145073
    68  C   -0.473439
    69  H    0.148444
    70  H    0.152836
    71  H    0.146765
    72  C   -0.332523
    73  H    0.186505
    74  H    0.162256
    75  C   -0.342136
    76  H    0.199526
    77  H    0.170111
 Sum of Mulliken charges =  -0.00000

 Dipole moment (field-independent basis, Debye):
    X=             -2.9056    Y=             -2.1197    Z=             -6.1846  Tot=              7.1544
 Quadrupole moment (field-independent basis, Debye-Ang):
   XX=           -206.5976   YY=           -221.9193   ZZ=           -220.1498
   XY=            -12.7140   XZ=             -4.8192   YZ=             10.2281

 Normal termination of Gaussian 16 at Thu Feb  7 13:03:06 2019.
