 Gaussian 16, Revision A.03,
 Gaussian 16:  ES64L-G16RevA.03 25-Dec-2016

 ------------------------------------------
 #p M062X/6-31G* em=gd3 force int=ultrafine
 ------------------------------------------

 -----
 Title
 -----
 Symbolic Z-matrix:
 Charge =  0 Multiplicity = 1

                         Standard orientation:
 ---------------------------------------------------------------------
 Center     Atomic      Atomic             Coordinates (Angstroms)
 Number     Number       Type             X           Y           Z
 ---------------------------------------------------------------------
      1          6           0       -4.868985    0.191475   -0.451194
      2          6           0       -4.957226   -1.100235   -1.269460
      3          6           0       -3.588806   -1.470224   -1.854766
      4          6           0       -2.584134   -1.612505   -0.715590
      5          6           0       -2.446393   -0.285982    0.085576
      6          6           0       -3.821945    0.082105    0.661638
      7          1           0       -3.644015   -2.397402   -2.436708
      8          1           0       -5.309743   -1.918787   -0.628364
      9          1           0       -5.685036   -0.993315   -2.080681
     10          1           0       -4.588237    1.017504   -1.119910
     11          1           0       -5.850268    0.438189   -0.031986
     12          1           0       -2.915263   -2.400790   -0.033314
     13          1           0       -2.209261    0.481924   -0.666394
     14          1           0       -4.121725   -0.672617    1.399657
     15          1           0       -3.719144    1.041035    1.183463
     16          1           0       -3.282003   -0.663803   -2.534961
     17          7           0       -1.227831   -2.012788   -1.158993
     18          6           0       -0.601794   -1.346092   -2.156473
     19          6           0       -0.484129   -2.761331   -0.310393
     20          6           0        0.752469   -1.389398   -2.324859
     21          1           0       -1.234293   -0.750960   -2.802442
     22          6           0        0.874923   -2.849788   -0.412126
     23          1           0       -1.028176   -3.244145    0.494379
     24          6           0        1.562090   -2.081731   -1.381892
     25          1           0        1.193694   -0.836730   -3.143857
     26          1           0        1.400306   -3.418202    0.342393
     27          7           0        2.899863   -1.997673   -1.391223
     28          6           0        3.681664   -2.477907   -0.244354
     29          1           0        3.617694   -3.566628   -0.160267
     30          1           0        3.285218   -2.024202    0.674787
     31          6           0        3.608287   -0.933262   -2.119060
     32          1           0        3.871727   -1.275803   -3.127057
     33          1           0        2.973363   -0.045856   -2.186145
     34          7           0       -1.317612   -0.275129    0.990035
     35         16           0       -1.290244   -1.184676    2.281438
     36          8           0       -2.321492   -2.245736    2.292502
     37          8           0        0.098921   -1.670530    2.505223
     38          6           0       -0.965057    2.845674   -0.145700
     39          6           0       -0.312315    2.157851   -1.176065
     40          6           0       -0.903674    2.070279   -2.434485
     41          6           0       -2.162390    2.625366   -2.670275
     42          6           0       -2.828872    3.277252   -1.635782
     43          6           0       -2.226762    3.386987   -0.384466
     44          1           0        0.635403    1.661183   -0.974345
     45          1           0       -0.379907    1.561130   -3.240666
     46          1           0       -2.621805    2.550498   -3.651445
     47          1           0       -3.815623    3.700513   -1.798313
     48          1           0       -2.745022    3.891850    0.427489
     49          8           0        0.269298    1.803873    1.664910
     50          1           0       -0.291631    1.031830    1.340936
     51          6           0        2.442466    0.617198    1.180095
     52          8           0        2.094494    0.194135    0.091843
     53          8           0        2.261780   -0.042047    2.314538
     54          1           0        1.538400   -0.718801    2.213156
     55          6           0        3.184909    1.919409    1.369584
     56          1           0        2.666812    2.461400    2.166924
     57          1           0        4.191221    1.690229    1.746871
     58          6           0       -0.329103    2.984586    1.221216
     59          1           0       -1.089626    3.348318    1.931264
     60          1           0        0.459320    3.751566    1.183221
     61          6           0       -1.600139   -0.103932    3.675589
     62          1           0       -0.855540    0.694298    3.624208
     63          1           0       -2.608221    0.303577    3.577565
     64          1           0       -1.499219   -0.675799    4.598888
     65          6           0        3.254494    2.748693    0.092518
     66          1           0        3.672105    2.139883   -0.718372
     67          1           0        2.235774    3.003687   -0.221108
     68          6           0        4.079803    4.019636    0.270038
     69          1           0        4.139062    4.588992   -0.662112
     70          1           0        3.641090    4.670684    1.033484
     71          1           0        5.102172    3.783114    0.584458
     72          6           0        5.095558   -1.987769   -0.543731
     73          1           0        5.688073   -1.877519    0.366737
     74          1           0        5.607699   -2.692957   -1.206099
     75          6           0        4.847305   -0.658974   -1.261433
     76          1           0        4.601803    0.114546   -0.528646
     77          1           0        5.698321   -0.319534   -1.855430
 ---------------------------------------------------------------------

 SCF Done:  E(RM062X) =  -1991.38637218     A.U. after   15 cycles

 The electronic state is 1-A.
 Alpha  occ. eigenvalues --  -90.10297 -19.63478 -19.60137 -19.58982 -19.58456
 Alpha  occ. eigenvalues --  -19.58317 -14.84786 -14.80455 -14.69329 -10.65608
 Alpha  occ. eigenvalues --  -10.63209 -10.62414 -10.61524 -10.59145 -10.59105
 Alpha  occ. eigenvalues --  -10.58970 -10.57823 -10.57384 -10.56775 -10.56692
 Alpha  occ. eigenvalues --  -10.55978 -10.55718 -10.55580 -10.55014 -10.54949
 Alpha  occ. eigenvalues --  -10.54892 -10.54615 -10.54587 -10.54500 -10.53872
 Alpha  occ. eigenvalues --  -10.53584 -10.53519 -10.53331 -10.53293 -10.52764
 Alpha  occ. eigenvalues --  -10.52628  -8.41257  -6.33494  -6.33403  -6.33323
 Alpha  occ. eigenvalues --   -1.19216  -1.17794  -1.12925  -1.10151  -1.09924
 Alpha  occ. eigenvalues --   -1.09101  -1.06067  -0.97532  -0.95303  -0.94759
 Alpha  occ. eigenvalues --   -0.92191  -0.89830  -0.88562  -0.88230  -0.85045
 Alpha  occ. eigenvalues --   -0.84890  -0.83677  -0.83516  -0.83297  -0.80109
 Alpha  occ. eigenvalues --   -0.79292  -0.76326  -0.75628  -0.74661  -0.70939
 Alpha  occ. eigenvalues --   -0.70231  -0.69230  -0.68683  -0.68341  -0.68055
 Alpha  occ. eigenvalues --   -0.65910  -0.64745  -0.63924  -0.63465  -0.61603
 Alpha  occ. eigenvalues --   -0.60258  -0.59372  -0.59045  -0.58351  -0.56157
 Alpha  occ. eigenvalues --   -0.55519  -0.55227  -0.55122  -0.54253  -0.53792
 Alpha  occ. eigenvalues --   -0.53448  -0.53056  -0.52538  -0.51916  -0.51676
 Alpha  occ. eigenvalues --   -0.51094  -0.50963  -0.50615  -0.50057  -0.49834
 Alpha  occ. eigenvalues --   -0.49619  -0.49536  -0.48792  -0.48324  -0.47992
 Alpha  occ. eigenvalues --   -0.47812  -0.47198  -0.47047  -0.46973  -0.45876
 Alpha  occ. eigenvalues --   -0.45657  -0.45218  -0.43946  -0.43666  -0.43448
 Alpha  occ. eigenvalues --   -0.42822  -0.42716  -0.42183  -0.42020  -0.41864
 Alpha  occ. eigenvalues --   -0.41179  -0.40904  -0.40531  -0.39886  -0.39587
 Alpha  occ. eigenvalues --   -0.39361  -0.39278  -0.38941  -0.38402  -0.37996
 Alpha  occ. eigenvalues --   -0.37330  -0.36225  -0.35807  -0.35341  -0.35154
 Alpha  occ. eigenvalues --   -0.34313  -0.33038  -0.32016  -0.31645  -0.31437
 Alpha  occ. eigenvalues --   -0.29904  -0.28842  -0.28320  -0.27374  -0.25366
 Alpha virt. eigenvalues --   -0.01041   0.00671   0.03188   0.03751   0.08930
 Alpha virt. eigenvalues --    0.10173   0.10924   0.11810   0.12954   0.13548
 Alpha virt. eigenvalues --    0.13847   0.14302   0.14989   0.15479   0.15836

 Mulliken charges:
               1
     1  C   -0.303966
     2  C   -0.304197
     3  C   -0.309698
     4  C   -0.072739
     5  C    0.065352
     6  C   -0.304922
     7  H    0.166643
     8  H    0.161108
     9  H    0.159189
    10  H    0.145551
    11  H    0.156882
    12  H    0.211254
    13  H    0.141034
    14  H    0.179705
    15  H    0.150288
    16  H    0.149997
    17  N   -0.423947
    18  C    0.098349
    19  C    0.085808
    20  C   -0.226874
    21  H    0.204674
    22  C   -0.226517
    23  H    0.262556
    24  C    0.427371
    25  H    0.187772
    26  H    0.207576
    27  N   -0.527625
    28  C   -0.158499
    29  H    0.178287
    30  H    0.198502
    31  C   -0.146238
    32  H    0.169589
    33  H    0.194554
    34  N   -0.761255
    35  S    1.248805
    36  O   -0.643319
    37  O   -0.669796
    38  C    0.049597
    39  C   -0.176365
    40  C   -0.188070
    41  C   -0.169609
    42  C   -0.161199
    43  C   -0.199270
    44  H    0.204681
    45  H    0.139265
    46  H    0.156702
    47  H    0.162078
    48  H    0.157901
    49  O   -0.716195
    50  H    0.484322
    51  C    0.656233
    52  O   -0.521478
    53  O   -0.646517
    54  H    0.484834
    55  C   -0.371406
    56  H    0.202716
    57  H    0.165408
    58  C   -0.063004
    59  H    0.127069
    60  H    0.149388
    61  C   -0.660594
    62  H    0.225292
    63  H    0.186636
    64  H    0.206691
    65  C   -0.289059
    66  H    0.145453
    67  H    0.162591
    68  C   -0.480371
    69  H    0.159198
    70  H    0.158460
    71  H    0.151497
    72  C   -0.336813
    73  H    0.184434
    74  H    0.169859
    75  C   -0.335819
    76  H    0.181237
    77  H    0.172969
 Sum of Mulliken charges =  -0.00000

 Dipole moment (field-independent basis, Debye):
    X=              1.5577    Y=             -0.2005    Z=             -6.6485  Tot=              6.8315
 Quadrupole moment (field-independent basis, Debye-Ang):
   XX=           -199.2012   YY=           -222.5220   ZZ=           -222.5411
   XY=            -11.6445   XZ=             -0.1214   YZ=             12.6899

 Normal termination of Gaussian 16 at Thu Feb  7 22:54:44 2019.
