 Gaussian 16, Revision A.03,
 Gaussian 16:  ES64L-G16RevA.03 25-Dec-2016

 ------------------------------------------
 #p M062X/6-31G* em=gd3 force int=ultrafine
 ------------------------------------------

 -----
 Title
 -----
 Symbolic Z-matrix:
 Charge =  0 Multiplicity = 1

                         Standard orientation:
 ---------------------------------------------------------------------
 Center     Atomic      Atomic             Coordinates (Angstroms)
 Number     Number       Type             X           Y           Z
 ---------------------------------------------------------------------
      1          6           0       -4.851910    0.361553   -0.494824
      2          6           0       -4.982181   -0.910979   -1.337367
      3          6           0       -3.626928   -1.316303   -1.930637
      4          6           0       -2.636537   -1.530254   -0.792377
      5          6           0       -2.462609   -0.241934    0.055675
      6          6           0       -3.821340    0.188313    0.624268
      7          1           0       -3.713243   -2.221732   -2.541650
      8          1           0       -5.359919   -1.728615   -0.709667
      9          1           0       -5.706299   -0.765673   -2.145478
     10          1           0       -4.535310    1.189067   -1.145601
     11          1           0       -5.825959    0.637458   -0.077091
     12          1           0       -2.993513   -2.330106   -0.135870
     13          1           0       -2.165954    0.539379   -0.661553
     14          1           0       -4.163145   -0.555147    1.354158
     15          1           0       -3.671764    1.136684    1.154896
     16          1           0       -3.285210   -0.500651   -2.582810
     17          7           0       -1.284647   -1.949696   -1.237036
     18          6           0       -0.630330   -1.263515   -2.203808
     19          6           0       -0.563522   -2.732666   -0.399209
     20          6           0        0.725362   -1.325689   -2.354748
     21          1           0       -1.240420   -0.633503   -2.838090
     22          6           0        0.795488   -2.843520   -0.485524
     23          1           0       -1.125895   -3.235407    0.380149
     24          6           0        1.510923   -2.060216   -1.422861
     25          1           0        1.187895   -0.753056   -3.148091
     26          1           0        1.299378   -3.444531    0.258348
     27          7           0        2.850346   -1.997833   -1.412144
     28          6           0        3.606858   -2.503378   -0.257949
     29          1           0        3.512884   -3.589525   -0.176108
     30          1           0        3.215430   -2.038700    0.657933
     31          6           0        3.584404   -0.921973   -2.100204
     32          1           0        3.855102   -1.238984   -3.114259
     33          1           0        2.965140   -0.022536   -2.147938
     34          7           0       -1.353991   -0.339433    0.969760
     35         16           0       -1.379875   -1.226836    2.280662
     36          8           0       -2.500896   -2.188831    2.316908
     37          8           0       -0.025606   -1.808770    2.477058
     38          6           0       -0.776806    2.782689   -0.073237
     39          6           0       -0.186797    2.137057   -1.167942
     40          6           0       -0.826529    2.150247   -2.405877
     41          6           0       -2.070014    2.766120   -2.557712
     42          6           0       -2.668322    3.385349   -1.463285
     43          6           0       -2.016925    3.394638   -0.233300
     44          1           0        0.746978    1.593335   -1.033279
     45          1           0       -0.356399    1.669804   -3.261782
     46          1           0       -2.571780    2.762434   -3.520558
     47          1           0       -3.641324    3.856880   -1.559560
     48          1           0       -2.477716    3.868172    0.630101
     49          8           0        0.289891    1.508534    1.680201
     50          1           0       -0.337952    0.807898    1.278730
     51          6           0        2.413097    0.565060    1.168313
     52          8           0        2.094108    0.157492    0.067403
     53          8           0        2.269438   -0.145603    2.284374
     54          1           0        1.533608   -0.801403    2.176467
     55          6           0        3.138074    1.873846    1.390189
     56          1           0        2.612080    2.414800    2.184300
     57          1           0        4.129902    1.628301    1.792100
     58          6           0       -0.127226    2.775416    1.292447
     59          1           0       -0.831210    3.203744    2.023397
     60          1           0        0.761880    3.423527    1.291033
     61          6           0       -1.552060   -0.086094    3.653315
     62          1           0       -0.740780    0.637255    3.541236
     63          1           0       -2.521504    0.410788    3.581901
     64          1           0       -1.460126   -0.634750    4.591360
     65          6           0        3.277890    2.724560    0.128812
     66          1           0        3.664011    2.102887   -0.687323
     67          1           0        2.292959    3.070614   -0.206412
     68          6           0        4.197771    3.923034    0.352994
     69          1           0        4.339934    4.498157   -0.566572
     70          1           0        3.790107    4.600180    1.111193
     71          1           0        5.183789    3.595027    0.699515
     72          6           0        5.034114   -2.046860   -0.543369
     73          1           0        5.632253   -1.981584    0.367735
     74          1           0        5.522478   -2.745410   -1.230440
     75          6           0        4.817239   -0.692031   -1.220282
     76          1           0        4.573184    0.059087   -0.463946
     77          1           0        5.679882   -0.343457   -1.791671
 ---------------------------------------------------------------------

 SCF Done:  E(RM062X) =  -1991.37768028     A.U. after   15 cycles

 The electronic state is 1-A.
 Alpha  occ. eigenvalues --  -90.10242 -19.63663 -19.60170 -19.58312 -19.58234
 Alpha  occ. eigenvalues --  -19.58172 -14.84802 -14.80398 -14.69237 -10.65979
 Alpha  occ. eigenvalues --  -10.63217 -10.62451 -10.61688 -10.59278 -10.59035
 Alpha  occ. eigenvalues --  -10.58842 -10.57828 -10.57188 -10.56771 -10.56732
 Alpha  occ. eigenvalues --  -10.55905 -10.55673 -10.55638 -10.55125 -10.55053
 Alpha  occ. eigenvalues --  -10.54957 -10.54624 -10.54612 -10.54504 -10.54004
 Alpha  occ. eigenvalues --  -10.53709 -10.53650 -10.53617 -10.53206 -10.53014
 Alpha  occ. eigenvalues --  -10.52625  -8.41188  -6.33425  -6.33336  -6.33258
 Alpha  occ. eigenvalues --   -1.19310  -1.17684  -1.12930  -1.10124  -1.09850
 Alpha  occ. eigenvalues --   -1.09039  -1.05998  -0.97665  -0.95401  -0.94754
 Alpha  occ. eigenvalues --   -0.92225  -0.89818  -0.88579  -0.88468  -0.85095
 Alpha  occ. eigenvalues --   -0.84780  -0.83763  -0.83584  -0.83288  -0.79968
 Alpha  occ. eigenvalues --   -0.79511  -0.76305  -0.75601  -0.74590  -0.70977
 Alpha  occ. eigenvalues --   -0.70360  -0.69452  -0.68647  -0.68355  -0.68130
 Alpha  occ. eigenvalues --   -0.66051  -0.64787  -0.63921  -0.63552  -0.61635
 Alpha  occ. eigenvalues --   -0.60310  -0.59405  -0.59149  -0.58356  -0.56211
 Alpha  occ. eigenvalues --   -0.55878  -0.55340  -0.55199  -0.54663  -0.53944
 Alpha  occ. eigenvalues --   -0.53503  -0.53058  -0.52665  -0.51799  -0.51621
 Alpha  occ. eigenvalues --   -0.51073  -0.50947  -0.50646  -0.49975  -0.49892
 Alpha  occ. eigenvalues --   -0.49785  -0.49516  -0.48753  -0.48316  -0.48065
 Alpha  occ. eigenvalues --   -0.47606  -0.47290  -0.47105  -0.47008  -0.45781
 Alpha  occ. eigenvalues --   -0.45473  -0.45144  -0.44022  -0.43807  -0.43507
 Alpha  occ. eigenvalues --   -0.43224  -0.42846  -0.42125  -0.41878  -0.41767
 Alpha  occ. eigenvalues --   -0.41264  -0.40926  -0.40511  -0.39901  -0.39715
 Alpha  occ. eigenvalues --   -0.39460  -0.39402  -0.39223  -0.38409  -0.38137
 Alpha  occ. eigenvalues --   -0.37470  -0.36326  -0.35839  -0.35350  -0.35090
 Alpha  occ. eigenvalues --   -0.34164  -0.32925  -0.31916  -0.31721  -0.30940
 Alpha  occ. eigenvalues --   -0.30014  -0.28637  -0.28335  -0.27223  -0.25382
 Alpha virt. eigenvalues --   -0.01091   0.00699   0.03083   0.03659   0.08865
 Alpha virt. eigenvalues --    0.10132   0.10956   0.11755   0.12977   0.13452
 Alpha virt. eigenvalues --    0.13732   0.14329   0.15041   0.15407   0.15867

 Mulliken charges:
               1
     1  C   -0.303699
     2  C   -0.304811
     3  C   -0.309479
     4  C   -0.069229
     5  C    0.071588
     6  C   -0.305008
     7  H    0.167308
     8  H    0.161916
     9  H    0.159449
    10  H    0.144282
    11  H    0.157488
    12  H    0.207488
    13  H    0.140342
    14  H    0.184251
    15  H    0.149754
    16  H    0.149722
    17  N   -0.424847
    18  C    0.096547
    19  C    0.097789
    20  C   -0.226581
    21  H    0.204339
    22  C   -0.228473
    23  H    0.256206
    24  C    0.425810
    25  H    0.187372
    26  H    0.207965
    27  N   -0.525176
    28  C   -0.159386
    29  H    0.177892
    30  H    0.197944
    31  C   -0.145022
    32  H    0.169392
    33  H    0.193544
    34  N   -0.781786
    35  S    1.243176
    36  O   -0.632678
    37  O   -0.665475
    38  C    0.053004
    39  C   -0.178252
    40  C   -0.188733
    41  C   -0.169808
    42  C   -0.160289
    43  C   -0.199687
    44  H    0.203917
    45  H    0.140166
    46  H    0.157437
    47  H    0.162637
    48  H    0.159201
    49  O   -0.718433
    50  H    0.488526
    51  C    0.674109
    52  O   -0.521239
    53  O   -0.646664
    54  H    0.479648
    55  C   -0.376559
    56  H    0.199396
    57  H    0.169074
    58  C   -0.062085
    59  H    0.124579
    60  H    0.138478
    61  C   -0.667766
    62  H    0.236072
    63  H    0.183914
    64  H    0.204976
    65  C   -0.292640
    66  H    0.148280
    67  H    0.163098
    68  C   -0.480703
    69  H    0.160442
    70  H    0.159200
    71  H    0.152514
    72  C   -0.335051
    73  H    0.183914
    74  H    0.169248
    75  C   -0.335180
    76  H    0.178885
    77  H    0.172463
 Sum of Mulliken charges =  -0.00000

 Dipole moment (field-independent basis, Debye):
    X=              1.8025    Y=              0.3601    Z=             -6.7956  Tot=              7.0398
 Quadrupole moment (field-independent basis, Debye-Ang):
   XX=           -201.0012   YY=           -222.7127   ZZ=           -222.9401
   XY=            -11.6379   XZ=              1.6949   YZ=             13.4943

 Normal termination of Gaussian 16 at Thu Feb  7 20:53:47 2019.
