 Gaussian 16, Revision A.03,
 Gaussian 16:  ES64L-G16RevA.03 25-Dec-2016

 ------------------------------------------
 #p M062X/6-31G* em=gd3 force int=ultrafine
 ------------------------------------------

 -----
 Title
 -----
 Symbolic Z-matrix:
 Charge =  0 Multiplicity = 1

                         Standard orientation:
 ---------------------------------------------------------------------
 Center     Atomic      Atomic             Coordinates (Angstroms)
 Number     Number       Type             X           Y           Z
 ---------------------------------------------------------------------
      1          6           0       -4.867024    0.047535   -0.420170
      2          6           0       -4.895313   -1.232757   -1.260577
      3          6           0       -3.511957   -1.527360   -1.852919
      4          6           0       -2.506692   -1.650417   -0.712609
      5          6           0       -2.420412   -0.330657    0.105246
      6          6           0       -3.810067   -0.027367    0.685810
      7          1           0       -3.524498   -2.444065   -2.453648
      8          1           0       -5.205833   -2.078477   -0.633006
      9          1           0       -5.629787   -1.147070   -2.068117
     10          1           0       -4.633473    0.898435   -1.075528
     11          1           0       -5.856738    0.235578    0.009611
     12          1           0       -2.814485   -2.457653   -0.042800
     13          1           0       -2.212425    0.455074   -0.636041
     14          1           0       -4.073328   -0.803374    1.415851
     15          1           0       -3.748068    0.929022    1.219229
     16          1           0       -3.239366   -0.693553   -2.514671
     17          7           0       -1.138329   -2.003324   -1.156634
     18          6           0       -0.530878   -1.308087   -2.145270
     19          6           0       -0.379571   -2.760161   -0.329298
     20          6           0        0.822424   -1.329779   -2.324963
     21          1           0       -1.177547   -0.709496   -2.773848
     22          6           0        0.979514   -2.828247   -0.443576
     23          1           0       -0.911966   -3.266891    0.468420
     24          6           0        1.647679   -2.031116   -1.403165
     25          1           0        1.250488   -0.757442   -3.137362
     26          1           0        1.519940   -3.409103    0.290646
     27          7           0        2.983656   -1.930855   -1.424234
     28          6           0        3.787881   -2.439110   -0.306291
     29          1           0        3.735211   -3.530713   -0.255623
     30          1           0        3.401595   -2.018078    0.632613
     31          6           0        3.671941   -0.843175   -2.135538
     32          1           0        3.927518   -1.159863   -3.154252
     33          1           0        3.026543    0.038234   -2.174341
     34          7           0       -1.297739   -0.285643    1.020044
     35         16           0       -1.257807   -1.237042    2.279571
     36          8           0       -2.241894   -2.341968    2.237419
     37          8           0        0.143204   -1.679208    2.520713
     38          6           0       -1.175126    2.849339   -0.175070
     39          6           0       -0.423040    2.196808   -1.157265
     40          6           0       -0.926745    2.072949   -2.450587
     41          6           0       -2.193225    2.561701   -2.771111
     42          6           0       -2.953320    3.192263   -1.787837
     43          6           0       -2.441062    3.336878   -0.500696
     44          1           0        0.531543    1.748186   -0.888060
     45          1           0       -0.327165    1.584071   -3.215250
     46          1           0       -2.585925    2.454610   -3.778006
     47          1           0       -3.945265    3.568866   -2.020351
     48          1           0       -3.036706    3.823620    0.268820
     49          8           0        0.200446    1.946428    1.611222
     50          1           0       -0.276517    1.103785    1.357128
     51          6           0        2.434764    0.662539    1.246608
     52          8           0        2.138040    0.217992    0.150523
     53          8           0        2.179818    0.042574    2.386133
     54          1           0        1.496799   -0.673248    2.260013
     55          6           0        3.189722    1.955772    1.446356
     56          1           0        2.724079    2.471909    2.290594
     57          1           0        4.216153    1.706188    1.752096
     58          6           0       -0.632742    3.003043    1.231458
     59          1           0       -1.479598    3.129607    1.926489
     60          1           0       -0.033097    3.921606    1.293380
     61          6           0       -1.650194   -0.228562    3.706076
     62          1           0       -0.957644    0.616401    3.700764
     63          1           0       -2.681029    0.116722    3.606051
     64          1           0       -1.528049   -0.829102    4.608570
     65          6           0        3.188685    2.829346    0.198907
     66          1           0        3.610225    2.267200   -0.643379
     67          1           0        2.148340    3.045286   -0.068238
     68          6           0        3.958651    4.130468    0.402575
     69          1           0        3.953186    4.742308   -0.504154
     70          1           0        3.515913    4.723430    1.209713
     71          1           0        5.003015    3.935122    0.669937
     72          6           0        5.191775   -1.925856   -0.614412
     73          1           0        5.800945   -1.840292    0.287608
     74          1           0        5.697504   -2.604524   -1.309027
     75          6           0        4.916594   -0.577436   -1.284381
     76          1           0        4.665225    0.168067   -0.524251
     77          1           0        5.755592   -0.206818   -1.876823
 ---------------------------------------------------------------------

 SCF Done:  E(RM062X) =  -1991.38992228     A.U. after   15 cycles

 The electronic state is 1-A.
 Alpha  occ. eigenvalues --  -90.10381 -19.63383 -19.60100 -19.59300 -19.58603
 Alpha  occ. eigenvalues --  -19.58364 -14.84813 -14.80523 -14.69417 -10.65452
 Alpha  occ. eigenvalues --  -10.63240 -10.62392 -10.61519 -10.59153 -10.59110
 Alpha  occ. eigenvalues --  -10.59028 -10.57819 -10.57415 -10.56843 -10.56649
 Alpha  occ. eigenvalues --  -10.56069 -10.55769 -10.55497 -10.54967 -10.54917
 Alpha  occ. eigenvalues --  -10.54859 -10.54579 -10.54539 -10.54491 -10.53762
 Alpha  occ. eigenvalues --  -10.53750 -10.53557 -10.53135 -10.52984 -10.52632
 Alpha  occ. eigenvalues --  -10.52538  -8.41346  -6.33583  -6.33491  -6.33411
 Alpha  occ. eigenvalues --   -1.19128  -1.17905  -1.12945  -1.10333  -1.09853
 Alpha  occ. eigenvalues --   -1.09163  -1.06172  -0.97553  -0.95249  -0.94820
 Alpha  occ. eigenvalues --   -0.92190  -0.89858  -0.88595  -0.88019  -0.85015
 Alpha  occ. eigenvalues --   -0.84961  -0.83648  -0.83504  -0.83301  -0.80209
 Alpha  occ. eigenvalues --   -0.79107  -0.76363  -0.75666  -0.74679  -0.70945
 Alpha  occ. eigenvalues --   -0.70192  -0.69057  -0.68734  -0.68366  -0.67993
 Alpha  occ. eigenvalues --   -0.65763  -0.64724  -0.63953  -0.63429  -0.61642
 Alpha  occ. eigenvalues --   -0.60277  -0.59402  -0.58962  -0.58365  -0.56173
 Alpha  occ. eigenvalues --   -0.55461  -0.55159  -0.55062  -0.54047  -0.53669
 Alpha  occ. eigenvalues --   -0.53437  -0.53080  -0.52361  -0.51972  -0.51727
 Alpha  occ. eigenvalues --   -0.51158  -0.51006  -0.50611  -0.50210  -0.49829
 Alpha  occ. eigenvalues --   -0.49616  -0.49456  -0.48844  -0.48362  -0.48007
 Alpha  occ. eigenvalues --   -0.47771  -0.47171  -0.46975  -0.46913  -0.45945
 Alpha  occ. eigenvalues --   -0.45858  -0.45249  -0.43961  -0.43652  -0.43423
 Alpha  occ. eigenvalues --   -0.42756  -0.42443  -0.42264  -0.41914  -0.41891
 Alpha  occ. eigenvalues --   -0.41158  -0.40834  -0.40586  -0.39919  -0.39520
 Alpha  occ. eigenvalues --   -0.39371  -0.39188  -0.38731  -0.38376  -0.37817
 Alpha  occ. eigenvalues --   -0.37351  -0.36254  -0.35904  -0.35368  -0.35111
 Alpha  occ. eigenvalues --   -0.34408  -0.33137  -0.32104  -0.31707  -0.31505
 Alpha  occ. eigenvalues --   -0.29838  -0.28886  -0.28321  -0.27515  -0.25433
 Alpha virt. eigenvalues --   -0.01022   0.00645   0.03326   0.03808   0.09092
 Alpha virt. eigenvalues --    0.10131   0.10934   0.11768   0.13005   0.13439
 Alpha virt. eigenvalues --    0.13832   0.14216   0.15176   0.15518   0.15742

 Mulliken charges:
               1
     1  C   -0.303960
     2  C   -0.304199
     3  C   -0.309772
     4  C   -0.073417
     5  C    0.062068
     6  C   -0.305269
     7  H    0.165827
     8  H    0.160905
     9  H    0.159168
    10  H    0.146586
    11  H    0.156640
    12  H    0.213102
    13  H    0.141464
    14  H    0.179760
    15  H    0.148874
    16  H    0.151120
    17  N   -0.424586
    18  C    0.100424
    19  C    0.084242
    20  C   -0.227996
    21  H    0.205435
    22  C   -0.227280
    23  H    0.264257
    24  C    0.428556
    25  H    0.188266
    26  H    0.206795
    27  N   -0.529331
    28  C   -0.157055
    29  H    0.178433
    30  H    0.199062
    31  C   -0.147306
    32  H    0.169528
    33  H    0.196319
    34  N   -0.754881
    35  S    1.249241
    36  O   -0.647135
    37  O   -0.670850
    38  C    0.048708
    39  C   -0.177230
    40  C   -0.186985
    41  C   -0.170067
    42  C   -0.162361
    43  C   -0.197514
    44  H    0.201949
    45  H    0.139543
    46  H    0.156429
    47  H    0.161784
    48  H    0.156381
    49  O   -0.710573
    50  H    0.480495
    51  C    0.644441
    52  O   -0.523598
    53  O   -0.644051
    54  H    0.485576
    55  C   -0.366995
    56  H    0.199923
    57  H    0.163887
    58  C   -0.068686
    59  H    0.128861
    60  H    0.160376
    61  C   -0.655738
    62  H    0.218421
    63  H    0.188205
    64  H    0.208144
    65  C   -0.286963
    66  H    0.143136
    67  H    0.167900
    68  C   -0.480445
    69  H    0.158306
    70  H    0.158670
    71  H    0.149733
    72  C   -0.337437
    73  H    0.183978
    74  H    0.170086
    75  C   -0.335613
    76  H    0.182928
    77  H    0.173361
 Sum of Mulliken charges =  -0.00000

 Dipole moment (field-independent basis, Debye):
    X=              1.5709    Y=             -0.4116    Z=             -6.4950  Tot=              6.6950
 Quadrupole moment (field-independent basis, Debye-Ang):
   XX=           -197.8214   YY=           -223.5463   ZZ=           -221.6571
   XY=            -12.1412   XZ=             -1.4309   YZ=             12.2996

 Normal termination of Gaussian 16 at Fri Feb  8 01:03:17 2019.
