 Gaussian 16, Revision A.03,
 Gaussian 16:  ES64L-G16RevA.03 25-Dec-2016

 ------------------------------------------
 #p M062X/6-31G* em=gd3 force int=ultrafine
 ------------------------------------------

 -----
 Title
 -----
 Symbolic Z-matrix:
 Charge =  0 Multiplicity = 1

                         Standard orientation:
 ---------------------------------------------------------------------
 Center     Atomic      Atomic             Coordinates (Angstroms)
 Number     Number       Type             X           Y           Z
 ---------------------------------------------------------------------
      1          6           0       -4.831637    0.469632   -0.529823
      2          6           0       -5.026978   -0.845782   -1.289948
      3          6           0       -3.702517   -1.329938   -1.892061
      4          6           0       -2.686221   -1.505488   -0.769116
      5          6           0       -2.451581   -0.167955   -0.023695
      6          6           0       -3.771474    0.337403    0.568617
      7          1           0       -3.830672   -2.271530   -2.436508
      8          1           0       -5.415245   -1.612787   -0.607006
      9          1           0       -5.768200   -0.721844   -2.085699
     10          1           0       -4.518723    1.249193   -1.237291
     11          1           0       -5.781319    0.794487   -0.092504
     12          1           0       -3.062036   -2.242745   -0.052651
     13          1           0       -2.131265    0.563985   -0.776156
     14          1           0       -4.117771   -0.354736    1.343154
     15          1           0       -3.583969    1.309177    1.038216
     16          1           0       -3.352643   -0.573022   -2.606922
     17          7           0       -1.367398   -2.004664   -1.210705
     18          6           0       -0.687309   -1.356297   -2.194152
     19          6           0       -0.668939   -2.786565   -0.345115
     20          6           0        0.665348   -1.434308   -2.315140
     21          1           0       -1.281576   -0.741075   -2.858183
     22          6           0        0.685580   -2.901246   -0.392508
     23          1           0       -1.252671   -3.261383    0.436004
     24          6           0        1.426404   -2.127418   -1.326533
     25          1           0        1.151181   -0.890057   -3.113830
     26          1           0        1.174736   -3.483353    0.375427
     27          7           0        2.751370   -2.057996   -1.280054
     28          6           0        3.494030   -2.525901   -0.099668
     29          1           0        3.361663   -3.602678    0.038004
     30          1           0        3.120734   -1.975552    0.776272
     31          6           0        3.494015   -1.007547   -1.993765
     32          1           0        3.739053   -1.345614   -3.008335
     33          1           0        2.880127   -0.103786   -2.028671
     34          7           0       -1.332949   -0.231663    0.905272
     35         16           0       -1.354684   -1.052249    2.319911
     36          8           0       -2.587401   -1.843673    2.356992
     37          8           0       -0.081871   -1.758192    2.477566
     38          6           0       -0.538628    2.647608   -0.076911
     39          6           0       -0.065200    2.092669   -1.275949
     40          6           0       -0.832422    2.155632   -2.438368
     41          6           0       -2.086934    2.765086   -2.437072
     42          6           0       -2.568555    3.317600   -1.252833
     43          6           0       -1.797182    3.257412   -0.092001
     44          1           0        0.881853    1.562079   -1.259009
     45          1           0       -0.439087    1.729427   -3.359338
     46          1           0       -2.677455    2.816351   -3.347702
     47          1           0       -3.541886    3.800123   -1.231691
     48          1           0       -2.182621    3.699010    0.824941
     49          8           0        0.743851    1.517047    1.796267
     50          1           0       -0.372439    0.008421    0.584119
     51          6           0        1.935914    0.804481    1.205104
     52          8           0        1.595216    0.191381    0.099041
     53          8           0        2.278847   -0.067983    2.267665
     54          1           0        1.577623   -0.744070    2.270144
     55          6           0        3.112839    1.810130    1.142091
     56          1           0        3.005673    2.526524    1.967339
     57          1           0        4.021300    1.236971    1.367310
     58          6           0        0.278152    2.704739    1.218658
     59          1           0       -0.373872    3.160774    1.976038
     60          1           0        1.106901    3.413311    1.069967
     61          6           0       -1.411667    0.192805    3.586905
     62          1           0       -0.521549    0.811705    3.441455
     63          1           0       -2.329806    0.768722    3.459598
     64          1           0       -1.401428   -0.318489    4.551035
     65          6           0        3.313581    2.548365   -0.178985
     66          1           0        3.520042    1.821063   -0.973228
     67          1           0        2.398831    3.064622   -0.489452
     68          6           0        4.454105    3.561008   -0.084505
     69          1           0        4.626187    4.074275   -1.035604
     70          1           0        4.232191    4.322560    0.671617
     71          1           0        5.389374    3.072149    0.211086
     72          6           0        4.931183   -2.137166   -0.425714
     73          1           0        5.547163   -2.064783    0.472341
     74          1           0        5.380808   -2.874100   -1.100653
     75          6           0        4.741229   -0.794003   -1.132312
     76          1           0        4.513286   -0.028692   -0.385402
     77          1           0        5.605334   -0.476769   -1.719848
 ---------------------------------------------------------------------

 SCF Done:  E(RM062X) =  -1991.35725174     A.U. after   14 cycles

 The electronic state is 1-A.
 Alpha  occ. eigenvalues --  -90.14515 -19.62095 -19.62018 -19.58530 -19.56615
 Alpha  occ. eigenvalues --  -19.50796 -14.85273 -14.80330 -14.76452 -10.63368
 Alpha  occ. eigenvalues --  -10.62774 -10.62257 -10.62018 -10.60934 -10.59643
 Alpha  occ. eigenvalues --  -10.58195 -10.57959 -10.57885 -10.57171 -10.56898
 Alpha  occ. eigenvalues --  -10.56817 -10.55826 -10.55788 -10.54968 -10.54968
 Alpha  occ. eigenvalues --  -10.54898 -10.54793 -10.54639 -10.54563 -10.54516
 Alpha  occ. eigenvalues --  -10.54438 -10.54363 -10.52979 -10.51276 -10.51231
 Alpha  occ. eigenvalues --  -10.49490  -8.45490  -6.37712  -6.37680  -6.37524
 Alpha  occ. eigenvalues --   -1.22316  -1.13629  -1.13222  -1.10567  -1.09228
 Alpha  occ. eigenvalues --   -1.05727  -1.02144  -0.99164  -0.95853  -0.95018
 Alpha  occ. eigenvalues --   -0.93560  -0.90315  -0.88744  -0.86184  -0.85516
 Alpha  occ. eigenvalues --   -0.84850  -0.84784  -0.84065  -0.83078  -0.82906
 Alpha  occ. eigenvalues --   -0.76696  -0.76050  -0.75774  -0.74251  -0.73027
 Alpha  occ. eigenvalues --   -0.71765  -0.68289  -0.68151  -0.67908  -0.67393
 Alpha  occ. eigenvalues --   -0.66629  -0.65350  -0.64825  -0.63520  -0.60504
 Alpha  occ. eigenvalues --   -0.60367  -0.59676  -0.59465  -0.57733  -0.57711
 Alpha  occ. eigenvalues --   -0.57279  -0.56482  -0.55823  -0.55140  -0.54259
 Alpha  occ. eigenvalues --   -0.53608  -0.52819  -0.52598  -0.52495  -0.51956
 Alpha  occ. eigenvalues --   -0.51598  -0.50919  -0.50476  -0.49927  -0.49409
 Alpha  occ. eigenvalues --   -0.49128  -0.48957  -0.48229  -0.48122  -0.47868
 Alpha  occ. eigenvalues --   -0.47777  -0.47543  -0.47042  -0.46297  -0.46033
 Alpha  occ. eigenvalues --   -0.45015  -0.44741  -0.44252  -0.43807  -0.43277
 Alpha  occ. eigenvalues --   -0.42592  -0.42187  -0.41244  -0.41175  -0.40984
 Alpha  occ. eigenvalues --   -0.40826  -0.40557  -0.39973  -0.39777  -0.39254
 Alpha  occ. eigenvalues --   -0.39203  -0.39092  -0.38398  -0.38168  -0.37759
 Alpha  occ. eigenvalues --   -0.37314  -0.36666  -0.36448  -0.35934  -0.34952
 Alpha  occ. eigenvalues --   -0.34419  -0.34104  -0.31783  -0.31213  -0.29808
 Alpha  occ. eigenvalues --   -0.28886  -0.28605  -0.27721  -0.24360  -0.24073
 Alpha virt. eigenvalues --   -0.01460   0.00387   0.03481   0.03711   0.10118
 Alpha virt. eigenvalues --    0.10773   0.11504   0.12362   0.13152   0.13347
 Alpha virt. eigenvalues --    0.14200   0.14365   0.14737   0.15309   0.15580

 Mulliken charges:
               1
     1  C   -0.306375
     2  C   -0.307446
     3  C   -0.309679
     4  C   -0.059253
     5  C    0.055552
     6  C   -0.310140
     7  H    0.174781
     8  H    0.163073
     9  H    0.166281
    10  H    0.150726
    11  H    0.164471
    12  H    0.207835
    13  H    0.174822
    14  H    0.194966
    15  H    0.163437
    16  H    0.155396
    17  N   -0.433681
    18  C    0.069979
    19  C    0.066685
    20  C   -0.202969
    21  H    0.205515
    22  C   -0.211219
    23  H    0.243800
    24  C    0.447638
    25  H    0.192458
    26  H    0.211094
    27  N   -0.523582
    28  C   -0.169016
    29  H    0.168773
    30  H    0.226270
    31  C   -0.151965
    32  H    0.163242
    33  H    0.206555
    34  N   -0.806656
    35  S    1.248671
    36  O   -0.607106
    37  O   -0.600377
    38  C    0.074103
    39  C   -0.190261
    40  C   -0.190942
    41  C   -0.172449
    42  C   -0.164484
    43  C   -0.210073
    44  H    0.220705
    45  H    0.140263
    46  H    0.155015
    47  H    0.158539
    48  H    0.152279
    49  O   -0.560218
    50  H    0.443110
    51  C    0.720037
    52  O   -0.717035
    53  O   -0.715277
    54  H    0.438881
    55  C   -0.338153
    56  H    0.146443
    57  H    0.150355
    58  C   -0.086422
    59  H    0.136773
    60  H    0.149597
    61  C   -0.664265
    62  H    0.276736
    63  H    0.197621
    64  H    0.219091
    65  C   -0.288988
    66  H    0.134481
    67  H    0.144264
    68  C   -0.473626
    69  H    0.148225
    70  H    0.152251
    71  H    0.147096
    72  C   -0.332872
    73  H    0.186338
    74  H    0.161821
    75  C   -0.341582
    76  H    0.200612
    77  H    0.169454
 Sum of Mulliken charges =  -0.00000

 Dipole moment (field-independent basis, Debye):
    X=             -3.0698    Y=             -2.1504    Z=             -6.1052  Tot=              7.1639
 Quadrupole moment (field-independent basis, Debye-Ang):
   XX=           -206.9597   YY=           -221.7368   ZZ=           -220.0181
   XY=            -12.8231   XZ=             -4.6752   YZ=             10.2888

 Normal termination of Gaussian 16 at Thu Feb  7 12:37:00 2019.
