 Gaussian 16, Revision A.03,
 Gaussian 16:  ES64L-G16RevA.03 25-Dec-2016

 ------------------------------------------
 #p M062X/6-31G* em=gd3 force int=ultrafine
 ------------------------------------------

 -----
 Title
 -----
 Symbolic Z-matrix:
 Charge =  0 Multiplicity = 1

                         Standard orientation:
 ---------------------------------------------------------------------
 Center     Atomic      Atomic             Coordinates (Angstroms)
 Number     Number       Type             X           Y           Z
 ---------------------------------------------------------------------
      1          6           0       -4.802936    0.461429   -0.518259
      2          6           0       -5.008846   -0.845938   -1.289294
      3          6           0       -3.691187   -1.327931   -1.908378
      4          6           0       -2.667749   -1.517715   -0.794727
      5          6           0       -2.420155   -0.188578   -0.036870
      6          6           0       -3.733989    0.315893    0.569791
      7          1           0       -3.827536   -2.264017   -2.460336
      8          1           0       -5.392332   -1.618619   -0.610043
      9          1           0       -5.757449   -0.712354   -2.076502
     10          1           0       -4.493867    1.246452   -1.221064
     11          1           0       -5.747711    0.785092   -0.069539
     12          1           0       -3.041714   -2.259959   -0.082755
     13          1           0       -2.101414    0.549502   -0.783985
     14          1           0       -4.076652   -0.382619    1.340297
     15          1           0       -3.539659    1.282596    1.046752
     16          1           0       -3.344964   -0.565564   -2.619255
     17          7           0       -1.352275   -2.016651   -1.247179
     18          6           0       -0.671509   -1.350584   -2.218192
     19          6           0       -0.652933   -2.804792   -0.387836
     20          6           0        0.682683   -1.414275   -2.329941
     21          1           0       -1.266977   -0.732039   -2.878298
     22          6           0        0.703040   -2.906566   -0.426540
     23          1           0       -1.237866   -3.293795    0.383675
     24          6           0        1.442207   -2.110037   -1.341948
     25          1           0        1.169426   -0.855532   -3.117925
     26          1           0        1.192201   -3.493738    0.337562
     27          7           0        2.765569   -2.020437   -1.280205
     28          6           0        3.506295   -2.486517   -0.098225
     29          1           0        3.380441   -3.564375    0.036224
     30          1           0        3.126045   -1.941769    0.778405
     31          6           0        3.496743   -0.953508   -1.979792
     32          1           0        3.735857   -1.271018   -3.002231
     33          1           0        2.874277   -0.054804   -1.996158
     34          7           0       -1.296166   -0.271725    0.883564
     35         16           0       -1.333060   -1.099628    2.290701
     36          8           0       -2.554972   -1.909232    2.308361
     37          8           0       -0.053722   -1.791399    2.463751
     38          6           0       -0.561414    2.665426   -0.033647
     39          6           0       -0.088467    2.139972   -1.246517
     40          6           0       -0.863218    2.213505   -2.402874
     41          6           0       -2.126997    2.803551   -2.382088
     42          6           0       -2.609422    3.325042   -1.184622
     43          6           0       -1.828990    3.255699   -0.030265
     44          1           0        0.864681    1.622023   -1.248845
     45          1           0       -0.469009    1.811475   -3.334163
     46          1           0       -2.724193    2.863074   -3.287850
     47          1           0       -3.590366    3.790879   -1.147477
     48          1           0       -2.214626    3.675225    0.896920
     49          8           0        0.731407    1.540638    1.840574
     50          1           0       -0.325011   -0.037204    0.560608
     51          6           0        1.894979    0.812925    1.226437
     52          8           0        1.517973    0.199471    0.127414
     53          8           0        2.256795   -0.061926    2.279230
     54          1           0        1.561828   -0.744442    2.288748
     55          6           0        3.085388    1.800576    1.131499
     56          1           0        3.007408    2.517050    1.958976
     57          1           0        3.988154    1.212633    1.338173
     58          6           0        0.265360    2.724577    1.255584
     59          1           0       -0.378127    3.188118    2.015215
     60          1           0        1.096039    3.428616    1.095851
     61          6           0       -1.428784    0.134826    3.565896
     62          1           0       -0.544285    0.766087    3.442578
     63          1           0       -2.350245    0.701762    3.422252
     64          1           0       -1.434008   -0.382362    4.526814
     65          6           0        3.272658    2.538199   -0.191519
     66          1           0        3.428764    1.808955   -0.995444
     67          1           0        2.369750    3.090913   -0.471789
     68          6           0        4.452350    3.507114   -0.126950
     69          1           0        4.611849    4.021506   -1.079600
     70          1           0        4.282746    4.269577    0.641420
     71          1           0        5.377885    2.981612    0.134413
     72          6           0        4.942159   -2.089687   -0.420687
     73          1           0        5.556899   -2.017314    0.478226
     74          1           0        5.395389   -2.823085   -1.096914
     75          6           0        4.749951   -0.745030   -1.124777
     76          1           0        4.532963    0.021479   -0.376113
     77          1           0        5.611333   -0.430135   -1.717491
 ---------------------------------------------------------------------

 SCF Done:  E(RM062X) =  -1991.35787009     A.U. after   14 cycles

 The electronic state is 1-A.
 Alpha  occ. eigenvalues --  -90.14328 -19.61917 -19.61878 -19.58580 -19.56663
 Alpha  occ. eigenvalues --  -19.51057 -14.85226 -14.80406 -14.76093 -10.63410
 Alpha  occ. eigenvalues --  -10.62788 -10.62250 -10.62139 -10.60821 -10.59488
 Alpha  occ. eigenvalues --  -10.58318 -10.57996 -10.57965 -10.57186 -10.56888
 Alpha  occ. eigenvalues --  -10.56746 -10.55715 -10.55673 -10.55069 -10.54871
 Alpha  occ. eigenvalues --  -10.54868 -10.54756 -10.54719 -10.54605 -10.54419
 Alpha  occ. eigenvalues --  -10.54404 -10.54343 -10.53030 -10.51396 -10.51360
 Alpha  occ. eigenvalues --  -10.49591  -8.45304  -6.37524  -6.37497  -6.37339
 Alpha  occ. eigenvalues --   -1.22143  -1.13611  -1.13361  -1.10396  -1.09311
 Alpha  occ. eigenvalues --   -1.05798  -1.01918  -0.99237  -0.95802  -0.95003
 Alpha  occ. eigenvalues --   -0.93534  -0.90322  -0.88762  -0.86024  -0.85671
 Alpha  occ. eigenvalues --   -0.84828  -0.84749  -0.84168  -0.83065  -0.82785
 Alpha  occ. eigenvalues --   -0.76690  -0.76181  -0.75816  -0.74292  -0.72893
 Alpha  occ. eigenvalues --   -0.71712  -0.68323  -0.68191  -0.67934  -0.67289
 Alpha  occ. eigenvalues --   -0.66704  -0.65271  -0.64856  -0.63533  -0.60524
 Alpha  occ. eigenvalues --   -0.60400  -0.59745  -0.59219  -0.57790  -0.57646
 Alpha  occ. eigenvalues --   -0.57229  -0.56460  -0.55810  -0.55154  -0.54224
 Alpha  occ. eigenvalues --   -0.53590  -0.52708  -0.52527  -0.52497  -0.51913
 Alpha  occ. eigenvalues --   -0.51564  -0.50976  -0.50609  -0.49908  -0.49481
 Alpha  occ. eigenvalues --   -0.49156  -0.48887  -0.48213  -0.48129  -0.47940
 Alpha  occ. eigenvalues --   -0.47722  -0.47500  -0.46962  -0.46384  -0.46091
 Alpha  occ. eigenvalues --   -0.44929  -0.44733  -0.44199  -0.43840  -0.43274
 Alpha  occ. eigenvalues --   -0.42564  -0.42173  -0.41340  -0.41253  -0.41047
 Alpha  occ. eigenvalues --   -0.40894  -0.40528  -0.39991  -0.39768  -0.39249
 Alpha  occ. eigenvalues --   -0.39231  -0.39095  -0.38415  -0.38056  -0.37660
 Alpha  occ. eigenvalues --   -0.37367  -0.36738  -0.36515  -0.35829  -0.34931
 Alpha  occ. eigenvalues --   -0.34404  -0.34037  -0.31689  -0.31186  -0.29785
 Alpha  occ. eigenvalues --   -0.28863  -0.28603  -0.27690  -0.24629  -0.24261
 Alpha virt. eigenvalues --   -0.01515   0.00382   0.03520   0.03730   0.10121
 Alpha virt. eigenvalues --    0.10892   0.11596   0.12279   0.13145   0.13436
 Alpha virt. eigenvalues --    0.14223   0.14464   0.14750   0.15238   0.15595

 Mulliken charges:
               1
     1  C   -0.306306
     2  C   -0.307287
     3  C   -0.309206
     4  C   -0.060113
     5  C    0.055794
     6  C   -0.310839
     7  H    0.174339
     8  H    0.163013
     9  H    0.165839
    10  H    0.150708
    11  H    0.163874
    12  H    0.208811
    13  H    0.173798
    14  H    0.194207
    15  H    0.163420
    16  H    0.154737
    17  N   -0.431573
    18  C    0.067932
    19  C    0.065133
    20  C   -0.201616
    21  H    0.206027
    22  C   -0.210032
    23  H    0.244436
    24  C    0.446347
    25  H    0.192340
    26  H    0.211331
    27  N   -0.525083
    28  C   -0.169737
    29  H    0.169531
    30  H    0.227282
    31  C   -0.154030
    32  H    0.164327
    33  H    0.207179
    34  N   -0.812323
    35  S    1.251107
    36  O   -0.609797
    37  O   -0.603821
    38  C    0.080351
    39  C   -0.187154
    40  C   -0.190308
    41  C   -0.171945
    42  C   -0.163965
    43  C   -0.211394
    44  H    0.216050
    45  H    0.140306
    46  H    0.154951
    47  H    0.158556
    48  H    0.152358
    49  O   -0.554625
    50  H    0.446619
    51  C    0.721633
    52  O   -0.719644
    53  O   -0.717052
    54  H    0.442290
    55  C   -0.338022
    56  H    0.148046
    57  H    0.151109
    58  C   -0.088721
    59  H    0.138439
    60  H    0.148185
    61  C   -0.663695
    62  H    0.275878
    63  H    0.196684
    64  H    0.218028
    65  C   -0.290729
    66  H    0.133642
    67  H    0.145613
    68  C   -0.473279
    69  H    0.148618
    70  H    0.153369
    71  H    0.146361
    72  C   -0.332228
    73  H    0.186634
    74  H    0.162575
    75  C   -0.342553
    76  H    0.198700
    77  H    0.170567
 Sum of Mulliken charges =  -0.00000

 Dipole moment (field-independent basis, Debye):
    X=             -2.7783    Y=             -2.0687    Z=             -6.2511  Tot=              7.1467
 Quadrupole moment (field-independent basis, Debye-Ang):
   XX=           -206.2855   YY=           -222.1499   ZZ=           -220.1809
   XY=            -12.6284   XZ=             -4.9673   YZ=             10.1597

 Normal termination of Gaussian 16 at Thu Feb  7 13:29:10 2019.
