 Gaussian 16, Revision A.03,
 Gaussian 16:  ES64L-G16RevA.03 25-Dec-2016

 ------------------------------------------
 #p M062X/6-31G* em=gd3 force int=ultrafine
 ------------------------------------------

 -----
 Title
 -----
 Symbolic Z-matrix:
 Charge =  0 Multiplicity = 1

                         Standard orientation:
 ---------------------------------------------------------------------
 Center     Atomic      Atomic             Coordinates (Angstroms)
 Number     Number       Type             X           Y           Z
 ---------------------------------------------------------------------
      1          6           0       -4.870059    0.149718   -0.442425
      2          6           0       -4.942813   -1.142461   -1.261554
      3          6           0       -3.570422   -1.495549   -1.847790
      4          6           0       -2.564470   -1.625972   -0.708496
      5          6           0       -2.439913   -0.296889    0.090553
      6          6           0       -3.819406    0.053888    0.668160
      7          1           0       -3.614598   -2.423923   -2.428812
      8          1           0       -5.284576   -1.965806   -0.620754
      9          1           0       -5.672558   -1.044050   -2.072076
     10          1           0       -4.602166    0.980111   -1.110941
     11          1           0       -5.853636    0.382388   -0.020612
     12          1           0       -2.889131   -2.415449   -0.024893
     13          1           0       -2.212449    0.473169   -0.661982
     14          1           0       -4.107902   -0.705423    1.406088
     15          1           0       -3.728543    1.013661    1.190716
     16          1           0       -3.273262   -0.685998   -2.528571
     17          7           0       -1.205630   -2.017105   -1.151314
     18          6           0       -0.584784   -1.348749   -2.150645
     19          6           0       -0.458161   -2.764840   -0.305424
     20          6           0        0.769137   -1.388070   -2.322569
     21          1           0       -1.221283   -0.756373   -2.795239
     22          6           0        0.900835   -2.848699   -0.410313
     23          1           0       -0.999184   -3.249998    0.499925
     24          6           0        1.582847   -2.077301   -1.380997
     25          1           0        1.206813   -0.835582   -3.143554
     26          1           0        1.430228   -3.416981    0.341503
     27          7           0        2.920037   -1.987981   -1.392923
     28          6           0        3.707052   -2.468394   -0.249965
     29          1           0        3.648034   -3.557730   -0.169298
     30          1           0        3.310872   -2.019509    0.671670
     31          6           0        3.622610   -0.921313   -2.122505
     32          1           0        3.884756   -1.262986   -3.131227
     33          1           0        2.984014   -0.036414   -2.187887
     34          7           0       -1.311429   -0.271033    0.996326
     35         16           0       -1.278492   -1.189518    2.280994
     36          8           0       -2.294118   -2.265927    2.280191
     37          8           0        0.114793   -1.660199    2.511556
     38          6           0       -1.017255    2.856329   -0.157835
     39          6           0       -0.343024    2.167744   -1.173150
     40          6           0       -0.916401    2.061382   -2.438288
     41          6           0       -2.178434    2.598676   -2.695638
     42          6           0       -2.865438    3.253676   -1.676411
     43          6           0       -2.281330    3.382756   -0.418303
     44          1           0        0.606817    1.683180   -0.953123
     45          1           0       -0.375767    1.550361   -3.231925
     46          1           0       -2.624524    2.507848   -3.681598
     47          1           0       -3.854793    3.663694   -1.856635
     48          1           0       -2.816584    3.890536    0.380878
     49          8           0        0.255230    1.853815    1.649861
     50          1           0       -0.290074    1.067435    1.345804
     51          6           0        2.441427    0.631594    1.192185
     52          8           0        2.100881    0.201288    0.104140
     53          8           0        2.244899   -0.014049    2.331214
     54          1           0        1.528848   -0.699200    2.227278
     55          6           0        3.190496    1.930483    1.378260
     56          1           0        2.686901    2.470701    2.185709
     57          1           0        4.201852    1.694827    1.738031
     58          6           0       -0.396609    3.010629    1.214512
     59          1           0       -1.176374    3.333829    1.923695
     60          1           0        0.356202    3.812864    1.187666
     61          6           0       -1.615594   -0.126767    3.682216
     62          1           0       -0.888265    0.687806    3.642460
     63          1           0       -2.631965    0.259150    3.582534
     64          1           0       -1.507309   -0.704813    4.600875
     65          6           0        3.242271    2.765046    0.104434
     66          1           0        3.665626    2.165572   -0.710524
     67          1           0        2.217403    3.004395   -0.201111
     68          6           0        4.047382    4.048557    0.283111
     69          1           0        4.089145    4.624280   -0.646036
     70          1           0        3.602599    4.686980    1.053656
     71          1           0        5.076212    3.828851    0.588559
     72          6           0        5.118057   -1.971422   -0.552101
     73          1           0        5.712324   -1.859810    0.357042
     74          1           0        5.631820   -2.673592   -1.216472
     75          6           0        4.862245   -0.642728   -1.267468
     76          1           0        4.614109    0.128797   -0.533315
     77          1           0        5.710448   -0.299028   -1.863022
 ---------------------------------------------------------------------

 SCF Done:  E(RM062X) =  -1991.38749374     A.U. after   15 cycles

 The electronic state is 1-A.
 Alpha  occ. eigenvalues --  -90.10314 -19.63417 -19.60113 -19.59100 -19.58501
 Alpha  occ. eigenvalues --  -19.58320 -14.84787 -14.80472 -14.69337 -10.65543
 Alpha  occ. eigenvalues --  -10.63213 -10.62409 -10.61506 -10.59118 -10.59100
 Alpha  occ. eigenvalues --  -10.59004 -10.57822 -10.57409 -10.56787 -10.56670
 Alpha  occ. eigenvalues --  -10.55999 -10.55729 -10.55555 -10.54998 -10.54935
 Alpha  occ. eigenvalues --  -10.54884 -10.54611 -10.54571 -10.54505 -10.53837
 Alpha  occ. eigenvalues --  -10.53587 -10.53573 -10.53263 -10.53219 -10.52707
 Alpha  occ. eigenvalues --  -10.52620  -8.41275  -6.33513  -6.33421  -6.33340
 Alpha  occ. eigenvalues --   -1.19160  -1.17824  -1.12926  -1.10223  -1.09886
 Alpha  occ. eigenvalues --   -1.09115  -1.06092  -0.97525  -0.95291  -0.94770
 Alpha  occ. eigenvalues --   -0.92184  -0.89836  -0.88566  -0.88173  -0.85040
 Alpha  occ. eigenvalues --   -0.84913  -0.83664  -0.83511  -0.83299  -0.80135
 Alpha  occ. eigenvalues --   -0.79238  -0.76332  -0.75637  -0.74680  -0.70934
 Alpha  occ. eigenvalues --   -0.70211  -0.69175  -0.68694  -0.68346  -0.68042
 Alpha  occ. eigenvalues --   -0.65880  -0.64735  -0.63927  -0.63443  -0.61601
 Alpha  occ. eigenvalues --   -0.60257  -0.59375  -0.59029  -0.58349  -0.56159
 Alpha  occ. eigenvalues --   -0.55480  -0.55196  -0.55094  -0.54183  -0.53745
 Alpha  occ. eigenvalues --   -0.53444  -0.53061  -0.52497  -0.51933  -0.51691
 Alpha  occ. eigenvalues --   -0.51105  -0.50973  -0.50612  -0.50091  -0.49832
 Alpha  occ. eigenvalues --   -0.49591  -0.49535  -0.48802  -0.48331  -0.47991
 Alpha  occ. eigenvalues --   -0.47810  -0.47185  -0.47024  -0.46977  -0.45896
 Alpha  occ. eigenvalues --   -0.45712  -0.45226  -0.43943  -0.43657  -0.43436
 Alpha  occ. eigenvalues --   -0.42798  -0.42620  -0.42202  -0.42006  -0.41877
 Alpha  occ. eigenvalues --   -0.41166  -0.40888  -0.40541  -0.39895  -0.39563
 Alpha  occ. eigenvalues --   -0.39360  -0.39252  -0.38883  -0.38393  -0.37957
 Alpha  occ. eigenvalues --   -0.37314  -0.36216  -0.35823  -0.35340  -0.35137
 Alpha  occ. eigenvalues --   -0.34341  -0.33064  -0.32034  -0.31662  -0.31488
 Alpha  occ. eigenvalues --   -0.29888  -0.28866  -0.28318  -0.27399  -0.25368
 Alpha virt. eigenvalues --   -0.01031   0.00665   0.03219   0.03763   0.08995
 Alpha virt. eigenvalues --    0.10169   0.10908   0.11815   0.12961   0.13546
 Alpha virt. eigenvalues --    0.13865   0.14287   0.15009   0.15481   0.15814

 Mulliken charges:
               1
     1  C   -0.303922
     2  C   -0.304184
     3  C   -0.309614
     4  C   -0.073066
     5  C    0.064094
     6  C   -0.304984
     7  H    0.166392
     8  H    0.161027
     9  H    0.159137
    10  H    0.145776
    11  H    0.156789
    12  H    0.211967
    13  H    0.141196
    14  H    0.179396
    15  H    0.150043
    16  H    0.150121
    17  N   -0.424019
    18  C    0.099025
    19  C    0.084546
    20  C   -0.227310
    21  H    0.204731
    22  C   -0.226456
    23  H    0.263474
    24  C    0.427706
    25  H    0.187918
    26  H    0.207399
    27  N   -0.528108
    28  C   -0.158193
    29  H    0.178327
    30  H    0.198845
    31  C   -0.146516
    32  H    0.169587
    33  H    0.194938
    34  N   -0.758436
    35  S    1.249261
    36  O   -0.645042
    37  O   -0.669998
    38  C    0.048949
    39  C   -0.176497
    40  C   -0.187665
    41  C   -0.169658
    42  C   -0.161515
    43  C   -0.198766
    44  H    0.204612
    45  H    0.139170
    46  H    0.156567
    47  H    0.162005
    48  H    0.157593
    49  O   -0.714755
    50  H    0.483450
    51  C    0.653170
    52  O   -0.521884
    53  O   -0.646551
    54  H    0.485367
    55  C   -0.370065
    56  H    0.202127
    57  H    0.164881
    58  C   -0.064545
    59  H    0.127563
    60  H    0.152239
    61  C   -0.659094
    62  H    0.222892
    63  H    0.187191
    64  H    0.207129
    65  C   -0.288361
    66  H    0.144801
    67  H    0.163431
    68  C   -0.480336
    69  H    0.158951
    70  H    0.158412
    71  H    0.151150
    72  C   -0.337042
    73  H    0.184383
    74  H    0.169940
    75  C   -0.335865
    76  H    0.181710
    77  H    0.173072
 Sum of Mulliken charges =  -0.00000

 Dipole moment (field-independent basis, Debye):
    X=              1.5442    Y=             -0.2814    Z=             -6.6073  Tot=              6.7911
 Quadrupole moment (field-independent basis, Debye-Ang):
   XX=           -198.8336   YY=           -222.6208   ZZ=           -222.3614
   XY=            -11.7464   XZ=             -0.5003   YZ=             12.5763

 Normal termination of Gaussian 16 at Thu Feb  7 23:24:36 2019.
