 Gaussian 16, Revision A.03,
 Gaussian 16:  ES64L-G16RevA.03 25-Dec-2016

 ------------------------------------------
 #p M062X/6-31G* em=gd3 force int=ultrafine
 ------------------------------------------

 -----
 Title
 -----
 Symbolic Z-matrix:
 Charge =  0 Multiplicity = 1

                         Standard orientation:
 ---------------------------------------------------------------------
 Center     Atomic      Atomic             Coordinates (Angstroms)
 Number     Number       Type             X           Y           Z
 ---------------------------------------------------------------------
      1          6           0       -4.869213    0.186704   -0.450017
      2          6           0       -4.955760   -1.105122   -1.268302
      3          6           0       -3.586920   -1.473315   -1.853708
      4          6           0       -2.581982   -1.614099   -0.714559
      5          6           0       -2.445811   -0.287165    0.086164
      6          6           0       -3.821716    0.078895    0.662502
      7          1           0       -3.640930   -2.400740   -2.435387
      8          1           0       -5.307118   -1.924162   -0.627195
      9          1           0       -5.683797   -0.999167   -2.079440
     10          1           0       -4.589891    1.013177   -1.118769
     11          1           0       -5.850717    0.431880   -0.030491
     12          1           0       -2.912372   -2.402428   -0.032029
     13          1           0       -2.209817    0.480898   -0.665966
     14          1           0       -4.120120   -0.676383    1.400534
     15          1           0       -3.720266    1.037915    1.184447
     16          1           0       -3.281234   -0.666670   -2.534146
     17          7           0       -1.225492   -2.013440   -1.157988
     18          6           0       -0.600075   -1.346635   -2.155785
     19          6           0       -0.481279   -2.761791   -0.309648
     20          6           0        0.754108   -1.389482   -2.324645
     21          1           0       -1.233095   -0.751919   -2.801633
     22          6           0        0.877746   -2.849698   -0.411788
     23          1           0       -1.024949   -3.244794    0.495262
     24          6           0        1.564295   -2.081305   -1.381756
     25          1           0        1.194890   -0.836954   -3.143953
     26          1           0        1.403631   -3.417971    0.342475
     27          7           0        2.901952   -1.996630   -1.391452
     28          6           0        3.684396   -2.476750   -0.244985
     29          1           0        3.621082   -3.565561   -0.161240
     30          1           0        3.287939   -2.023559    0.674398
     31          6           0        3.609671   -0.932026   -2.119636
     32          1           0        3.872944   -1.274594   -3.127692
     33          1           0        2.974284   -0.044954   -2.186591
     34          7           0       -1.316794   -0.273836    0.990410
     35         16           0       -1.288421   -1.184979    2.281244
     36          8           0       -2.317817   -2.247863    2.291019
     37          8           0        0.101044   -1.669200    2.505897
     38          6           0       -0.971069    2.846913   -0.147061
     39          6           0       -0.315886    2.159115   -1.175731
     40          6           0       -0.905426    2.069277   -2.434796
     41          6           0       -2.164559    2.622302   -2.672875
     42          6           0       -2.833251    3.274684   -1.640078
     43          6           0       -2.233011    3.386762   -0.388053
     44          1           0        0.632117    1.663743   -0.971886
     45          1           0       -0.379838    1.559756   -3.239515
     46          1           0       -2.622602    2.545512   -3.654538
     47          1           0       -3.820389    3.696339   -1.804530
     48          1           0       -2.753101    3.892034    0.422480
     49          8           0        0.268836    1.808496    1.664076
     50          1           0       -0.292065    1.039052    1.341577
     51          6           0        2.441618    0.619179    1.181259
     52          8           0        2.095227    0.195164    0.092864
     53          8           0        2.260232   -0.039223    2.316981
     54          1           0        1.537528   -0.716673    2.214572
     55          6           0        3.185752    1.920567    1.370231
     56          1           0        2.668985    2.462407    2.168617
     57          1           0        4.192640    1.690895    1.745705
     58          6           0       -0.336623    2.987033    1.220004
     59          1           0       -1.098712    3.347582    1.930183
     60          1           0        0.448244    3.757894    1.183233
     61          6           0       -1.601765   -0.106366    3.676260
     62          1           0       -0.859158    0.693774    3.626268
     63          1           0       -2.610862    0.298589    3.578068
     64          1           0       -1.499961   -0.678938    4.599043
     65          6           0        3.253250    2.750398    0.093446
     66          1           0        3.671566    2.142571   -0.717818
     67          1           0        2.233748    3.003451   -0.219335
     68          6           0        4.076093    4.022921    0.270875
     69          1           0        4.133290    4.592874   -0.661028
     70          1           0        3.636604    4.672596    1.035057
     71          1           0        5.099232    3.788449    0.584314
     72          6           0        5.097937   -1.985751   -0.544717
     73          1           0        5.690585   -1.875146    0.365621
     74          1           0        5.610375   -2.690672   -1.207156
     75          6           0        4.848776   -0.657099   -1.262380
     76          1           0        4.602969    0.116311   -0.529569
     77          1           0        5.699453   -0.317281   -1.856654
 ---------------------------------------------------------------------

 SCF Done:  E(RM062X) =  -1991.38650940     A.U. after   15 cycles

 The electronic state is 1-A.
 Alpha  occ. eigenvalues --  -90.10291 -19.63462 -19.60144 -19.59023 -19.58459
 Alpha  occ. eigenvalues --  -19.58310 -14.84783 -14.80456 -14.69314 -10.65608
 Alpha  occ. eigenvalues --  -10.63208 -10.62412 -10.61519 -10.59134 -10.59107
 Alpha  occ. eigenvalues --  -10.58972 -10.57821 -10.57403 -10.56774 -10.56679
 Alpha  occ. eigenvalues --  -10.55980 -10.55719 -10.55574 -10.55018 -10.54954
 Alpha  occ. eigenvalues --  -10.54898 -10.54627 -10.54583 -10.54512 -10.53875
 Alpha  occ. eigenvalues --  -10.53580 -10.53521 -10.53325 -10.53287 -10.52760
 Alpha  occ. eigenvalues --  -10.52621  -8.41251  -6.33488  -6.33397  -6.33317
 Alpha  occ. eigenvalues --   -1.19183  -1.17791  -1.12921  -1.10188  -1.09918
 Alpha  occ. eigenvalues --   -1.09102  -1.06066  -0.97519  -0.95313  -0.94754
 Alpha  occ. eigenvalues --   -0.92182  -0.89828  -0.88561  -0.88224  -0.85063
 Alpha  occ. eigenvalues --   -0.84892  -0.83673  -0.83518  -0.83295  -0.80104
 Alpha  occ. eigenvalues --   -0.79284  -0.76324  -0.75627  -0.74682  -0.70934
 Alpha  occ. eigenvalues --   -0.70221  -0.69216  -0.68683  -0.68342  -0.68061
 Alpha  occ. eigenvalues --   -0.65914  -0.64741  -0.63919  -0.63450  -0.61597
 Alpha  occ. eigenvalues --   -0.60256  -0.59368  -0.59052  -0.58349  -0.56155
 Alpha  occ. eigenvalues --   -0.55522  -0.55222  -0.55116  -0.54236  -0.53781
 Alpha  occ. eigenvalues --   -0.53445  -0.53055  -0.52540  -0.51913  -0.51675
 Alpha  occ. eigenvalues --   -0.51091  -0.50963  -0.50612  -0.50069  -0.49830
 Alpha  occ. eigenvalues --   -0.49614  -0.49535  -0.48790  -0.48323  -0.47997
 Alpha  occ. eigenvalues --   -0.47801  -0.47196  -0.47044  -0.46975  -0.45873
 Alpha  occ. eigenvalues --   -0.45658  -0.45215  -0.43943  -0.43665  -0.43445
 Alpha  occ. eigenvalues --   -0.42818  -0.42704  -0.42185  -0.42034  -0.41864
 Alpha  occ. eigenvalues --   -0.41174  -0.40902  -0.40531  -0.39890  -0.39586
 Alpha  occ. eigenvalues --   -0.39364  -0.39277  -0.38936  -0.38398  -0.37998
 Alpha  occ. eigenvalues --   -0.37329  -0.36230  -0.35821  -0.35336  -0.35156
 Alpha  occ. eigenvalues --   -0.34318  -0.33041  -0.32016  -0.31651  -0.31461
 Alpha  occ. eigenvalues --   -0.29910  -0.28857  -0.28321  -0.27371  -0.25351
 Alpha virt. eigenvalues --   -0.01038   0.00673   0.03183   0.03742   0.08935
 Alpha virt. eigenvalues --    0.10171   0.10921   0.11812   0.12955   0.13551
 Alpha virt. eigenvalues --    0.13849   0.14299   0.14992   0.15480   0.15835

 Mulliken charges:
               1
     1  C   -0.303933
     2  C   -0.304191
     3  C   -0.309665
     4  C   -0.072794
     5  C    0.065212
     6  C   -0.304874
     7  H    0.166589
     8  H    0.161095
     9  H    0.159160
    10  H    0.145520
    11  H    0.156848
    12  H    0.211328
    13  H    0.140909
    14  H    0.179651
    15  H    0.150173
    16  H    0.149963
    17  N   -0.423940
    18  C    0.098451
    19  C    0.085618
    20  C   -0.226944
    21  H    0.204653
    22  C   -0.226505
    23  H    0.262684
    24  C    0.427401
    25  H    0.187762
    26  H    0.207561
    27  N   -0.527675
    28  C   -0.158485
    29  H    0.178290
    30  H    0.198585
    31  C   -0.146274
    32  H    0.169591
    33  H    0.194573
    34  N   -0.760952
    35  S    1.248816
    36  O   -0.643598
    37  O   -0.669622
    38  C    0.049443
    39  C   -0.176157
    40  C   -0.188055
    41  C   -0.169540
    42  C   -0.161282
    43  C   -0.199072
    44  H    0.204740
    45  H    0.139301
    46  H    0.156735
    47  H    0.162127
    48  H    0.157948
    49  O   -0.715889
    50  H    0.484445
    51  C    0.656134
    52  O   -0.521301
    53  O   -0.646936
    54  H    0.484878
    55  C   -0.371284
    56  H    0.202559
    57  H    0.165457
    58  C   -0.064052
    59  H    0.127402
    60  H    0.149863
    61  C   -0.660464
    62  H    0.224974
    63  H    0.186677
    64  H    0.206705
    65  C   -0.288979
    66  H    0.145404
    67  H    0.162575
    68  C   -0.480357
    69  H    0.159176
    70  H    0.158447
    71  H    0.151474
    72  C   -0.336833
    73  H    0.184441
    74  H    0.169860
    75  C   -0.335833
    76  H    0.181311
    77  H    0.172974
 Sum of Mulliken charges =  -0.00000

 Dipole moment (field-independent basis, Debye):
    X=              1.5546    Y=             -0.1970    Z=             -6.6492  Tot=              6.8313
 Quadrupole moment (field-independent basis, Debye-Ang):
   XX=           -199.1754   YY=           -222.4964   ZZ=           -222.5349
   XY=            -11.6656   XZ=             -0.1727   YZ=             12.6815

 Normal termination of Gaussian 16 at Thu Feb  7 22:57:59 2019.
