 Gaussian 16, Revision A.03,
 Gaussian 16:  ES64L-G16RevA.03 25-Dec-2016

 ------------------------------------------
 #p M062X/6-31G* em=gd3 force int=ultrafine
 ------------------------------------------

 -----
 Title
 -----
 Symbolic Z-matrix:
 Charge =  0 Multiplicity = 1

                         Standard orientation:
 ---------------------------------------------------------------------
 Center     Atomic      Atomic             Coordinates (Angstroms)
 Number     Number       Type             X           Y           Z
 ---------------------------------------------------------------------
      1          6           0       -4.862942    0.493537   -0.554076
      2          6           0       -5.038412   -0.813693   -1.332576
      3          6           0       -3.700750   -1.286346   -1.914424
      4          6           0       -2.702699   -1.474891   -0.776598
      5          6           0       -2.495390   -0.148357   -0.006067
      6          6           0       -3.827554    0.346944    0.564791
      7          1           0       -3.815457   -2.220254   -2.474766
      8          1           0       -5.437487   -1.589109   -0.665579
      9          1           0       -5.764016   -0.683434   -2.141503
     10          1           0       -4.532899    1.281495   -1.244663
     11          1           0       -5.822280    0.813741   -0.135093
     12          1           0       -3.086012   -2.226998   -0.079401
     13          1           0       -2.156999    0.595441   -0.738854
     14          1           0       -4.187069   -0.355807    1.323873
     15          1           0       -3.648933    1.312066    1.051798
     16          1           0       -3.339967   -0.518001   -2.611372
     17          7           0       -1.374661   -1.960655   -1.206003
     18          6           0       -0.690549   -1.318319   -2.190687
     19          6           0       -0.680302   -2.749684   -0.343676
     20          6           0        0.660550   -1.412934   -2.319195
     21          1           0       -1.280008   -0.697232   -2.853075
     22          6           0        0.672522   -2.879961   -0.397928
     23          1           0       -1.266015   -3.224544    0.435802
     24          6           0        1.420229   -2.120551   -1.339521
     25          1           0        1.148218   -0.873931   -3.120416
     26          1           0        1.157566   -3.472644    0.364581
     27          7           0        2.746753   -2.082047   -1.307581
     28          6           0        3.484800   -2.566047   -0.129987
     29          1           0        3.343446   -3.642899   -0.001035
     30          1           0        3.114994   -2.018573    0.748813
     31          6           0        3.510908   -1.047838   -2.024946
     32          1           0        3.767044   -1.403395   -3.030848
     33          1           0        2.912123   -0.135612   -2.077424
     34          7           0       -1.401829   -0.222535    0.947938
     35         16           0       -1.408011   -1.067246    2.346795
     36          8           0       -2.644998   -1.850886    2.371261
     37          8           0       -0.136548   -1.777688    2.484670
     38          6           0       -0.524842    2.652046   -0.086566
     39          6           0       -0.047885    2.064394   -1.267175
     40          6           0       -0.797561    2.133513   -2.441282
     41          6           0       -2.036092    2.774284   -2.463856
     42          6           0       -2.521184    3.354753   -1.293682
     43          6           0       -1.767427    3.292810   -0.121795
     44          1           0        0.887651    1.510167   -1.221847
     45          1           0       -0.403916    1.686933   -3.352442
     46          1           0       -2.613197    2.828093   -3.382907
     47          1           0       -3.483657    3.859050   -1.293310
     48          1           0       -2.153649    3.753368    0.785443
     49          8           0        0.726425    1.432733    1.715955
     50          1           0       -0.467701    0.139962    0.700229
     51          6           0        2.008990    0.775151    1.178407
     52          8           0        1.772499    0.189080    0.043707
     53          8           0        2.294744   -0.107370    2.248916
     54          1           0        1.588007   -0.777098    2.214743
     55          6           0        3.138853    1.829334    1.214171
     56          1           0        2.963539    2.527218    2.043225
     57          1           0        4.056338    1.285054    1.472751
     58          6           0        0.275983    2.660514    1.216316
     59          1           0       -0.381227    3.082747    1.990273
     60          1           0        1.109638    3.370219    1.109947
     61          6           0       -1.440053    0.164581    3.627528
     62          1           0       -0.550228    0.781324    3.468692
     63          1           0       -2.359366    0.743228    3.525106
     64          1           0       -1.406901   -0.353216    4.587590
     65          6           0        3.368356    2.585380   -0.092296
     66          1           0        3.617086    1.865159   -0.880469
     67          1           0        2.449134    3.076976   -0.431398
     68          6           0        4.478354    3.625973    0.043327
     69          1           0        4.665342    4.148926   -0.899737
     70          1           0        4.216817    4.377670    0.796636
     71          1           0        5.416542    3.158134    0.362382
     72          6           0        4.926076   -2.184331   -0.445532
     73          1           0        5.535413   -2.118915    0.457688
     74          1           0        5.377587   -2.920696   -1.119973
     75          6           0        4.746413   -0.837576   -1.147168
     76          1           0        4.501082   -0.077348   -0.400183
     77          1           0        5.618421   -0.517724   -1.721612
 ---------------------------------------------------------------------

 SCF Done:  E(RM062X) =  -1991.35609069     A.U. after   15 cycles

 The electronic state is 1-A.
 Alpha  occ. eigenvalues --  -90.14793 -19.62363 -19.62194 -19.58515 -19.56729
 Alpha  occ. eigenvalues --  -19.50484 -14.85272 -14.80148 -14.76799 -10.63248
 Alpha  occ. eigenvalues --  -10.62702 -10.62207 -10.61987 -10.61087 -10.59870
 Alpha  occ. eigenvalues --  -10.57909 -10.57849 -10.57687 -10.57075 -10.56947
 Alpha  occ. eigenvalues --  -10.56911 -10.56182 -10.55885 -10.55085 -10.55018
 Alpha  occ. eigenvalues --  -10.54930 -10.54771 -10.54744 -10.54672 -10.54561
 Alpha  occ. eigenvalues --  -10.54419 -10.54226 -10.53004 -10.51110 -10.51015
 Alpha  occ. eigenvalues --  -10.49432  -8.45761  -6.37988  -6.37945  -6.37800
 Alpha  occ. eigenvalues --   -1.22575  -1.13567  -1.12944  -1.10804  -1.09009
 Alpha  occ. eigenvalues --   -1.05732  -1.02504  -0.99386  -0.95890  -0.95118
 Alpha  occ. eigenvalues --   -0.93539  -0.90226  -0.88653  -0.86481  -0.85330
 Alpha  occ. eigenvalues --   -0.84905  -0.84853  -0.83825  -0.83189  -0.83078
 Alpha  occ. eigenvalues --   -0.76647  -0.75917  -0.75650  -0.74232  -0.73263
 Alpha  occ. eigenvalues --   -0.71806  -0.68224  -0.68168  -0.67803  -0.67516
 Alpha  occ. eigenvalues --   -0.66482  -0.65481  -0.64808  -0.63432  -0.60492
 Alpha  occ. eigenvalues --   -0.60314  -0.59913  -0.59509  -0.57862  -0.57687
 Alpha  occ. eigenvalues --   -0.57252  -0.56477  -0.55786  -0.55123  -0.54344
 Alpha  occ. eigenvalues --   -0.53604  -0.53052  -0.52691  -0.52466  -0.52063
 Alpha  occ. eigenvalues --   -0.51690  -0.50834  -0.50245  -0.49923  -0.49343
 Alpha  occ. eigenvalues --   -0.49184  -0.48992  -0.48382  -0.48132  -0.47935
 Alpha  occ. eigenvalues --   -0.47732  -0.47612  -0.47160  -0.46172  -0.45870
 Alpha  occ. eigenvalues --   -0.45167  -0.44961  -0.44342  -0.43862  -0.43253
 Alpha  occ. eigenvalues --   -0.42549  -0.42267  -0.41130  -0.40999  -0.40866
 Alpha  occ. eigenvalues --   -0.40679  -0.40480  -0.39999  -0.39849  -0.39357
 Alpha  occ. eigenvalues --   -0.39210  -0.38961  -0.38498  -0.38342  -0.37865
 Alpha  occ. eigenvalues --   -0.37307  -0.36533  -0.36409  -0.36083  -0.34984
 Alpha  occ. eigenvalues --   -0.34463  -0.34234  -0.31844  -0.31281  -0.29915
 Alpha  occ. eigenvalues --   -0.29042  -0.28740  -0.27757  -0.24044  -0.23899
 Alpha virt. eigenvalues --   -0.01326   0.00473   0.03316   0.03630   0.10127
 Alpha virt. eigenvalues --    0.10608   0.11343   0.12516   0.13174   0.13250
 Alpha virt. eigenvalues --    0.14110   0.14401   0.14875   0.15441   0.15560

 Mulliken charges:
               1
     1  C   -0.306403
     2  C   -0.307776
     3  C   -0.310685
     4  C   -0.058961
     5  C    0.059627
     6  C   -0.308154
     7  H    0.175489
     8  H    0.163189
     9  H    0.166850
    10  H    0.151028
    11  H    0.165069
    12  H    0.206788
    13  H    0.175790
    14  H    0.194160
    15  H    0.162750
    16  H    0.156169
    17  N   -0.437122
    18  C    0.074855
    19  C    0.073020
    20  C   -0.206183
    21  H    0.204156
    22  C   -0.216313
    23  H    0.243183
    24  C    0.449488
    25  H    0.192415
    26  H    0.210381
    27  N   -0.520105
    28  C   -0.167621
    29  H    0.167322
    30  H    0.224200
    31  C   -0.147917
    32  H    0.161233
    33  H    0.205941
    34  N   -0.800203
    35  S    1.243040
    36  O   -0.603688
    37  O   -0.593319
    38  C    0.058950
    39  C   -0.195976
    40  C   -0.191723
    41  C   -0.172507
    42  C   -0.165406
    43  C   -0.206505
    44  H    0.229180
    45  H    0.141099
    46  H    0.155607
    47  H    0.159136
    48  H    0.153150
    49  O   -0.579394
    50  H    0.440532
    51  C    0.718395
    52  O   -0.706915
    53  O   -0.708664
    54  H    0.433039
    55  C   -0.340142
    56  H    0.144094
    57  H    0.150051
    58  C   -0.083121
    59  H    0.133578
    60  H    0.153406
    61  C   -0.664896
    62  H    0.273276
    63  H    0.199627
    64  H    0.221294
    65  C   -0.285991
    66  H    0.139193
    67  H    0.141329
    68  C   -0.474252
    69  H    0.147834
    70  H    0.150359
    71  H    0.147700
    72  C   -0.333626
    73  H    0.185390
    74  H    0.160404
    75  C   -0.339591
    76  H    0.203704
    77  H    0.166690
 Sum of Mulliken charges =  -0.00000

 Dipole moment (field-independent basis, Debye):
    X=             -3.5285    Y=             -1.9439    Z=             -5.8414  Tot=              7.0959
 Quadrupole moment (field-independent basis, Debye-Ang):
   XX=           -208.2087   YY=           -221.8319   ZZ=           -219.0537
   XY=            -13.1685   XZ=             -4.2582   YZ=             10.5546

 Normal termination of Gaussian 16 at Thu Feb  7 11:17:52 2019.
