 Gaussian 16, Revision A.03,
 Gaussian 16:  ES64L-G16RevA.03 25-Dec-2016

 ------------------------------------------
 #p M062X/6-31G* em=gd3 force int=ultrafine
 ------------------------------------------

 -----
 Title
 -----
 Symbolic Z-matrix:
 Charge =  0 Multiplicity = 1

                         Standard orientation:
 ---------------------------------------------------------------------
 Center     Atomic      Atomic             Coordinates (Angstroms)
 Number     Number       Type             X           Y           Z
 ---------------------------------------------------------------------
      1          6           0       -4.863030    0.285413   -0.473404
      2          6           0       -4.979270   -0.998631   -1.300065
      3          6           0       -3.618876   -1.393804   -1.888283
      4          6           0       -2.620171   -1.574530   -0.749212
      5          6           0       -2.458701   -0.264228    0.072663
      6          6           0       -3.825135    0.141304    0.643843
      7          1           0       -3.695012   -2.310198   -2.484618
      8          1           0       -5.348707   -1.813273   -0.663588
      9          1           0       -5.705016   -0.871172   -2.110116
     10          1           0       -4.558310    1.108249   -1.135665
     11          1           0       -5.839697    0.554616   -0.057317
     12          1           0       -2.966093   -2.368980   -0.080654
     13          1           0       -2.193219    0.506008   -0.667750
     14          1           0       -4.150721   -0.604047    1.379946
     15          1           0       -3.694191    1.096223    1.166933
     16          1           0       -3.291839   -0.584671   -2.555796
     17          7           0       -1.266942   -1.987009   -1.194004
     18          6           0       -0.626797   -1.312915   -2.178181
     19          6           0       -0.533491   -2.747543   -0.346762
     20          6           0        0.728416   -1.364830   -2.337190
     21          1           0       -1.248302   -0.702403   -2.820463
     22          6           0        0.825698   -2.847230   -0.440883
     23          1           0       -1.086157   -3.235444    0.449063
     24          6           0        1.526962   -2.076001   -1.398403
     25          1           0        1.179642   -0.802682   -3.144318
     26          1           0        1.340325   -3.427533    0.311984
     27          7           0        2.866073   -2.004555   -1.399548
     28          6           0        3.635377   -2.494934   -0.247749
     29          1           0        3.557002   -3.582381   -0.162643
     30          1           0        3.241052   -2.034458    0.668921
     31          6           0        3.588518   -0.936755   -2.110656
     32          1           0        3.855852   -1.269680   -3.120637
     33          1           0        2.962212   -0.042913   -2.171208
     34          7           0       -1.335761   -0.300227    0.979764
     35         16           0       -1.331129   -1.196100    2.283325
     36          8           0       -2.406703   -2.210543    2.313951
     37          8           0        0.042965   -1.727962    2.491722
     38          6           0       -0.858414    2.810261   -0.110760
     39          6           0       -0.244730    2.140076   -1.177020
     40          6           0       -0.867090    2.105979   -2.423526
     41          6           0       -2.116824    2.698226   -2.612712
     42          6           0       -2.743023    3.334433   -1.544094
     43          6           0       -2.110264    3.389439   -0.305032
     44          1           0        0.696711    1.617432   -1.014915
     45          1           0       -0.375494    1.610672   -3.258422
     46          1           0       -2.600731    2.664327   -3.584279
     47          1           0       -3.721602    3.787776   -1.669175
     48          1           0       -2.595115    3.879921    0.535524
     49          8           0        0.294779    1.663897    1.690366
     50          1           0       -0.299234    0.930287    1.323775
     51          6           0        2.438890    0.584332    1.166526
     52          8           0        2.092078    0.175044    0.070944
     53          8           0        2.281193   -0.105570    2.288157
     54          1           0        1.546816   -0.767345    2.185006
     55          6           0        3.166527    1.893016    1.370990
     56          1           0        2.626721    2.431551    2.156810
     57          1           0        4.163862    1.671153    1.774055
     58          6           0       -0.207285    2.888742    1.253280
     59          1           0       -0.936150    3.303303    1.968140
     60          1           0        0.638402    3.592903    1.222024
     61          6           0       -1.570299   -0.079334    3.664634
     62          1           0       -0.786925    0.678192    3.583418
     63          1           0       -2.557361    0.378981    3.577249
     64          1           0       -1.479811   -0.637705    4.597172
     65          6           0        3.271173    2.727865    0.097652
     66          1           0        3.669282    2.109096   -0.715250
     67          1           0        2.267717    3.028441   -0.225271
     68          6           0        4.147329    3.962817    0.290813
     69          1           0        4.249584    4.529898   -0.639009
     70          1           0        3.725722    4.632948    1.047431
     71          1           0        5.151949    3.679464    0.623142
     72          6           0        5.056329   -2.021907   -0.539866
     73          1           0        5.650240   -1.930435    0.371816
     74          1           0        5.558147   -2.726224   -1.211017
     75          6           0        4.825252   -0.682573   -1.242997
     76          1           0        4.583518    0.084130   -0.501878
     77          1           0        5.682476   -0.342930   -1.827874
 ---------------------------------------------------------------------

 SCF Done:  E(RM062X) =  -1991.38289618     A.U. after   15 cycles

 The electronic state is 1-A.
 Alpha  occ. eigenvalues --  -90.10231 -19.63696 -19.60192 -19.58729 -19.58320
 Alpha  occ. eigenvalues --  -19.58286 -14.84790 -14.80416 -14.69267 -10.65845
 Alpha  occ. eigenvalues --  -10.63208 -10.62428 -10.61598 -10.59238 -10.59064
 Alpha  occ. eigenvalues --  -10.58895 -10.57822 -10.57358 -10.56763 -10.56711
 Alpha  occ. eigenvalues --  -10.55934 -10.55689 -10.55621 -10.55080 -10.55010
 Alpha  occ. eigenvalues --  -10.54929 -10.54651 -10.54607 -10.54514 -10.53969
 Alpha  occ. eigenvalues --  -10.53594 -10.53535 -10.53490 -10.53336 -10.52905
 Alpha  occ. eigenvalues --  -10.52619  -8.41184  -6.33421  -6.33330  -6.33251
 Alpha  occ. eigenvalues --   -1.19315  -1.17693  -1.12918  -1.10110  -1.09985
 Alpha  occ. eigenvalues --   -1.09042  -1.05989  -0.97535  -0.95364  -0.94729
 Alpha  occ. eigenvalues --   -0.92185  -0.89811  -0.88555  -0.88370  -0.85100
 Alpha  occ. eigenvalues --   -0.84822  -0.83707  -0.83542  -0.83275  -0.80011
 Alpha  occ. eigenvalues --   -0.79433  -0.76306  -0.75603  -0.74664  -0.70943
 Alpha  occ. eigenvalues --   -0.70269  -0.69378  -0.68655  -0.68342  -0.68100
 Alpha  occ. eigenvalues --   -0.65996  -0.64757  -0.63924  -0.63540  -0.61603
 Alpha  occ. eigenvalues --   -0.60270  -0.59366  -0.59110  -0.58349  -0.56157
 Alpha  occ. eigenvalues --   -0.55695  -0.55305  -0.55162  -0.54444  -0.53889
 Alpha  occ. eigenvalues --   -0.53463  -0.53046  -0.52628  -0.51842  -0.51638
 Alpha  occ. eigenvalues --   -0.51063  -0.50945  -0.50619  -0.50010  -0.49828
 Alpha  occ. eigenvalues --   -0.49726  -0.49516  -0.48765  -0.48309  -0.48028
 Alpha  occ. eigenvalues --   -0.47751  -0.47247  -0.47083  -0.46990  -0.45805
 Alpha  occ. eigenvalues --   -0.45532  -0.45169  -0.43961  -0.43707  -0.43473
 Alpha  occ. eigenvalues --   -0.43006  -0.42830  -0.42144  -0.42032  -0.41815
 Alpha  occ. eigenvalues --   -0.41217  -0.40927  -0.40515  -0.39873  -0.39646
 Alpha  occ. eigenvalues --   -0.39394  -0.39342  -0.39104  -0.38397  -0.38094
 Alpha  occ. eigenvalues --   -0.37395  -0.36280  -0.35824  -0.35327  -0.35174
 Alpha  occ. eigenvalues --   -0.34237  -0.32973  -0.31965  -0.31683  -0.31256
 Alpha  occ. eigenvalues --   -0.29963  -0.28793  -0.28332  -0.27301  -0.25336
 Alpha virt. eigenvalues --   -0.01064   0.00690   0.03117   0.03687   0.08745
 Alpha virt. eigenvalues --    0.10163   0.10968   0.11786   0.12965   0.13506
 Alpha virt. eigenvalues --    0.13780   0.14317   0.14989   0.15460   0.15871

 Mulliken charges:
               1
     1  C   -0.303889
     2  C   -0.304364
     3  C   -0.309877
     4  C   -0.071393
     5  C    0.068618
     6  C   -0.304756
     7  H    0.167054
     8  H    0.161432
     9  H    0.159281
    10  H    0.144858
    11  H    0.157086
    12  H    0.209058
    13  H    0.140215
    14  H    0.181497
    15  H    0.150146
    16  H    0.149837
    17  N   -0.424276
    18  C    0.097175
    19  C    0.091428
    20  C   -0.226290
    21  H    0.204499
    22  C   -0.227497
    23  H    0.259318
    24  C    0.426654
    25  H    0.187415
    26  H    0.207792
    27  N   -0.526390
    28  C   -0.159051
    29  H    0.178120
    30  H    0.197809
    31  C   -0.145486
    32  H    0.169485
    33  H    0.193904
    34  N   -0.769512
    35  S    1.245900
    36  O   -0.638137
    37  O   -0.668324
    38  C    0.051769
    39  C   -0.176534
    40  C   -0.188825
    41  C   -0.169496
    42  C   -0.160529
    43  C   -0.199894
    44  H    0.204318
    45  H    0.139829
    46  H    0.157227
    47  H    0.162446
    48  H    0.158626
    49  O   -0.717808
    50  H    0.486340
    51  C    0.664900
    52  O   -0.522645
    53  O   -0.645456
    54  H    0.482921
    55  C   -0.374360
    56  H    0.202612
    57  H    0.167214
    58  C   -0.063188
    59  H    0.126591
    60  H    0.143874
    61  C   -0.664338
    62  H    0.230644
    63  H    0.185144
    64  H    0.205581
    65  C   -0.290794
    66  H    0.147102
    67  H    0.162320
    68  C   -0.480652
    69  H    0.159881
    70  H    0.158794
    71  H    0.152119
    72  C   -0.336018
    73  H    0.184226
    74  H    0.169576
    75  C   -0.335469
    76  H    0.179971
    77  H    0.172645
 Sum of Mulliken charges =  -0.00000

 Dipole moment (field-independent basis, Debye):
    X=              1.6681    Y=              0.0996    Z=             -6.7410  Tot=              6.9450
 Quadrupole moment (field-independent basis, Debye-Ang):
   XX=           -200.1360   YY=           -222.4621   ZZ=           -222.8661
   XY=            -11.5745   XZ=              0.9058   YZ=             13.0789

 Normal termination of Gaussian 16 at Thu Feb  7 21:51:00 2019.
