 Gaussian 16, Revision A.03,
 Gaussian 16:  ES64L-G16RevA.03 25-Dec-2016

 ------------------------------------------
 #p M062X/6-31G* em=gd3 force int=ultrafine
 ------------------------------------------

 -----
 Title
 -----
 Symbolic Z-matrix:
 Charge =  0 Multiplicity = 1

                         Standard orientation:
 ---------------------------------------------------------------------
 Center     Atomic      Atomic             Coordinates (Angstroms)
 Number     Number       Type             X           Y           Z
 ---------------------------------------------------------------------
      1          6           0       -4.852977    0.540601   -0.528773
      2          6           0       -5.030002   -0.735168   -1.357242
      3          6           0       -3.690416   -1.192999   -1.946788
      4          6           0       -2.701724   -1.435922   -0.810747
      5          6           0       -2.495637   -0.145172    0.018619
      6          6           0       -3.829719    0.341854    0.592448
      7          1           0       -3.806997   -2.101885   -2.546550
      8          1           0       -5.438759   -1.532631   -0.722911
      9          1           0       -5.748360   -0.570078   -2.166262
     10          1           0       -4.508560    1.350982   -1.185821
     11          1           0       -5.813729    0.853614   -0.107657
     12          1           0       -3.093788   -2.216207   -0.150303
     13          1           0       -2.137141    0.623129   -0.678856
     14          1           0       -4.201174   -0.385206    1.322809
     15          1           0       -3.645674    1.286740    1.116557
     16          1           0       -3.319541   -0.398318   -2.608009
     17          7           0       -1.372690   -1.910112   -1.252398
     18          6           0       -0.686435   -1.243938   -2.218742
     19          6           0       -0.679853   -2.725247   -0.413791
     20          6           0        0.664232   -1.341454   -2.352899
     21          1           0       -1.273402   -0.602606   -2.863445
     22          6           0        0.672443   -2.862369   -0.475628
     23          1           0       -1.266491   -3.222541    0.350835
     24          6           0        1.423409   -2.084092   -1.399371
     25          1           0        1.152427   -0.783162   -3.140621
     26          1           0        1.154831   -3.481952    0.267019
     27          7           0        2.751070   -2.060924   -1.375588
     28          6           0        3.489011   -2.585220   -0.215454
     29          1           0        3.341829   -3.664750   -0.119175
     30          1           0        3.123745   -2.064383    0.680869
     31          6           0        3.524850   -1.016302   -2.068926
     32          1           0        3.779038   -1.351876   -3.082149
     33          1           0        2.936502   -0.096814   -2.101229
     34          7           0       -1.412890   -0.285222    0.975508
     35         16           0       -1.438928   -1.178589    2.338448
     36          8           0       -2.669019   -1.973166    2.312518
     37          8           0       -0.164052   -1.884328    2.471820
     38          6           0       -0.532868    2.684862   -0.063082
     39          6           0       -0.033014    2.070727   -1.219239
     40          6           0       -0.741080    2.155216   -2.417606
     41          6           0       -1.963027    2.825068   -2.480817
     42          6           0       -2.472987    3.423235   -1.329904
     43          6           0       -1.757687    3.354220   -0.134735
     44          1           0        0.886715    1.490206   -1.137171
     45          1           0       -0.331147    1.695123   -3.314707
     46          1           0       -2.509688    2.887136   -3.417672
     47          1           0       -3.424948    3.945868   -1.363045
     48          1           0       -2.160718    3.825284    0.759657
     49          8           0        0.658718    1.355068    1.645600
     50          1           0       -0.538848    0.269064    0.890043
     51          6           0        2.053908    0.728470    1.189510
     52          8           0        1.928633    0.178066    0.035783
     53          8           0        2.250296   -0.156560    2.268560
     54          1           0        1.566110   -0.843190    2.167747
     55          6           0        3.118050    1.830976    1.341226
     56          1           0        2.865331    2.488817    2.182246
     57          1           0        4.044551    1.317287    1.629362
     58          6           0        0.228658    2.627958    1.256273
     59          1           0       -0.444939    3.002379    2.043156
     60          1           0        1.068452    3.337012    1.218221
     61          6           0       -1.486079    0.010749    3.660559
     62          1           0       -0.603462    0.642594    3.519193
     63          1           0       -2.411112    0.583426    3.578905
     64          1           0       -1.440459   -0.532415    4.605740
     65          6           0        3.374448    2.633297    0.067701
     66          1           0        3.709437    1.946913   -0.718260
     67          1           0        2.444682    3.072746   -0.312696
     68          6           0        4.407602    3.736172    0.285175
     69          1           0        4.612440    4.289171   -0.636777
     70          1           0        4.059445    4.454328    1.036135
     71          1           0        5.354377    3.319406    0.646500
     72          6           0        4.932247   -2.201570   -0.520043
     73          1           0        5.541616   -2.164872    0.384858
     74          1           0        5.380214   -2.921572   -1.214180
     75          6           0        4.760555   -0.835308   -1.185079
     76          1           0        4.514402   -0.093688   -0.419894
     77          1           0        5.635156   -0.506349   -1.750396
 ---------------------------------------------------------------------

 SCF Done:  E(RM062X) =  -1991.35554562     A.U. after   15 cycles

 The electronic state is 1-A.
 Alpha  occ. eigenvalues --  -90.14697 -19.62349 -19.62039 -19.58519 -19.57164
 Alpha  occ. eigenvalues --  -19.50813 -14.85174 -14.80048 -14.76391 -10.63158
 Alpha  occ. eigenvalues --  -10.62606 -10.62321 -10.62121 -10.61069 -10.59842
 Alpha  occ. eigenvalues --  -10.57779 -10.57757 -10.57658 -10.57017 -10.56969
 Alpha  occ. eigenvalues --  -10.56872 -10.56369 -10.55861 -10.55121 -10.55071
 Alpha  occ. eigenvalues --  -10.55042 -10.54888 -10.54685 -10.54677 -10.54672
 Alpha  occ. eigenvalues --  -10.54444 -10.54057 -10.53122 -10.51112 -10.51008
 Alpha  occ. eigenvalues --  -10.49626  -8.45671  -6.37898  -6.37846  -6.37721
 Alpha  occ. eigenvalues --   -1.22491  -1.13445  -1.12818  -1.10692  -1.08881
 Alpha  occ. eigenvalues --   -1.06001  -1.02368  -1.00244  -0.95816  -0.95214
 Alpha  occ. eigenvalues --   -0.93468  -0.90112  -0.88568  -0.86513  -0.85398
 Alpha  occ. eigenvalues --   -0.84901  -0.84846  -0.83723  -0.83315  -0.83037
 Alpha  occ. eigenvalues --   -0.76562  -0.76029  -0.75552  -0.74184  -0.73236
 Alpha  occ. eigenvalues --   -0.71746  -0.68229  -0.68128  -0.67747  -0.67478
 Alpha  occ. eigenvalues --   -0.66418  -0.65480  -0.64883  -0.63328  -0.60515
 Alpha  occ. eigenvalues --   -0.60376  -0.59944  -0.59398  -0.57950  -0.57684
 Alpha  occ. eigenvalues --   -0.57152  -0.56376  -0.55643  -0.55066  -0.54381
 Alpha  occ. eigenvalues --   -0.53551  -0.53052  -0.52655  -0.52445  -0.52164
 Alpha  occ. eigenvalues --   -0.51670  -0.50822  -0.50128  -0.49928  -0.49371
 Alpha  occ. eigenvalues --   -0.49242  -0.48917  -0.48505  -0.48195  -0.48027
 Alpha  occ. eigenvalues --   -0.47705  -0.47645  -0.47154  -0.46210  -0.45833
 Alpha  occ. eigenvalues --   -0.45342  -0.45175  -0.44391  -0.44071  -0.43186
 Alpha  occ. eigenvalues --   -0.42465  -0.42335  -0.41203  -0.40876  -0.40752
 Alpha  occ. eigenvalues --   -0.40659  -0.40399  -0.40146  -0.39845  -0.39425
 Alpha  occ. eigenvalues --   -0.39111  -0.38920  -0.38716  -0.38295  -0.37755
 Alpha  occ. eigenvalues --   -0.37450  -0.36525  -0.36442  -0.36034  -0.35031
 Alpha  occ. eigenvalues --   -0.34570  -0.34298  -0.31861  -0.31287  -0.30015
 Alpha  occ. eigenvalues --   -0.29274  -0.28809  -0.27781  -0.24429  -0.24080
 Alpha virt. eigenvalues --   -0.01235   0.00581   0.03207   0.03586   0.10166
 Alpha virt. eigenvalues --    0.10594   0.11355   0.12564   0.13165   0.13329
 Alpha virt. eigenvalues --    0.14156   0.14417   0.15072   0.15534   0.15537

 Mulliken charges:
               1
     1  C   -0.306536
     2  C   -0.307790
     3  C   -0.311404
     4  C   -0.060609
     5  C    0.065603
     6  C   -0.306821
     7  H    0.175413
     8  H    0.163251
     9  H    0.166736
    10  H    0.151561
    11  H    0.164859
    12  H    0.207559
    13  H    0.174318
    14  H    0.192227
    15  H    0.160422
    16  H    0.156550
    17  N   -0.437317
    18  C    0.080319
    19  C    0.080948
    20  C   -0.210800
    21  H    0.202828
    22  C   -0.221293
    23  H    0.243882
    24  C    0.448820
    25  H    0.192064
    26  H    0.209720
    27  N   -0.518267
    28  C   -0.164486
    29  H    0.167188
    30  H    0.220278
    31  C   -0.145171
    32  H    0.160422
    33  H    0.205392
    34  N   -0.812444
    35  S    1.237583
    36  O   -0.603954
    37  O   -0.591846
    38  C    0.049380
    39  C   -0.197352
    40  C   -0.192682
    41  C   -0.172540
    42  C   -0.165207
    43  C   -0.205303
    44  H    0.235269
    45  H    0.141271
    46  H    0.156257
    47  H    0.159870
    48  H    0.154390
    49  O   -0.603249
    50  H    0.451298
    51  C    0.714580
    52  O   -0.684969
    53  O   -0.700977
    54  H    0.432739
    55  C   -0.339906
    56  H    0.144247
    57  H    0.151029
    58  C   -0.079069
    59  H    0.130077
    60  H    0.156142
    61  C   -0.666310
    62  H    0.266669
    63  H    0.200331
    64  H    0.223074
    65  C   -0.285109
    66  H    0.142945
    67  H    0.140709
    68  C   -0.475163
    69  H    0.148430
    70  H    0.149095
    71  H    0.148777
    72  C   -0.334162
    73  H    0.184248
    74  H    0.160097
    75  C   -0.338499
    76  H    0.205628
    77  H    0.164740
 Sum of Mulliken charges =  -0.00000

 Dipole moment (field-independent basis, Debye):
    X=             -3.5255    Y=             -1.4821    Z=             -5.7200  Tot=              6.8807
 Quadrupole moment (field-independent basis, Debye-Ang):
   XX=           -208.4505   YY=           -222.6961   ZZ=           -218.1411
   XY=            -13.5076   XZ=             -4.2154   YZ=             10.7921

 Normal termination of Gaussian 16 at Thu Feb  7 09:30:55 2019.
