 Gaussian 16, Revision A.03,
 Gaussian 16:  ES64L-G16RevA.03 25-Dec-2016

 ------------------------------------------
 #p M062X/6-31G* em=gd3 force int=ultrafine
 ------------------------------------------

 -----
 Title
 -----
 Symbolic Z-matrix:
 Charge =  0 Multiplicity = 1

                         Standard orientation:
 ---------------------------------------------------------------------
 Center     Atomic      Atomic             Coordinates (Angstroms)
 Number     Number       Type             X           Y           Z
 ---------------------------------------------------------------------
      1          6           0       -4.865123    0.507503   -0.556791
      2          6           0       -5.035130   -0.789141   -1.353741
      3          6           0       -3.693593   -1.252812   -1.933896
      4          6           0       -2.701782   -1.458772   -0.793424
      5          6           0       -2.501976   -0.145696    0.001467
      6          6           0       -3.838381    0.344041    0.567263
      7          1           0       -3.804662   -2.178192   -2.508956
      8          1           0       -5.437673   -1.573550   -0.699465
      9          1           0       -5.755914   -0.648516   -2.165227
     10          1           0       -4.528572    1.304198   -1.234223
     11          1           0       -5.827238    0.823459   -0.141004
     12          1           0       -3.088405   -2.223223   -0.111549
     13          1           0       -2.152149    0.608602   -0.715146
     14          1           0       -4.203449   -0.368431    1.314717
     15          1           0       -3.661537    1.302277    1.068641
     16          1           0       -3.328974   -0.473936   -2.617009
     17          7           0       -1.371038   -1.936704   -1.223826
     18          6           0       -0.684882   -1.285450   -2.200980
     19          6           0       -0.678179   -2.735908   -0.369988
     20          6           0        0.665937   -1.382696   -2.331289
     21          1           0       -1.272501   -0.656223   -2.857174
     22          6           0        0.674330   -2.870177   -0.426606
     23          1           0       -1.265026   -3.219898    0.402953
     24          6           0        1.424710   -2.105006   -1.361640
     25          1           0        1.154561   -0.836602   -3.127147
     26          1           0        1.157333   -3.474435    0.328118
     27          7           0        2.751853   -2.075892   -1.333100
     28          6           0        3.487314   -2.574461   -0.159771
     29          1           0        3.344699   -3.652627   -0.043520
     30          1           0        3.116359   -2.037353    0.724716
     31          6           0        3.522532   -1.039213   -2.041011
     32          1           0        3.783098   -1.390360   -3.047295
     33          1           0        2.927810   -0.124582   -2.091164
     34          7           0       -1.417278   -0.246810    0.961736
     35         16           0       -1.429658   -1.109490    2.346806
     36          8           0       -2.664404   -1.896790    2.350903
     37          8           0       -0.157090   -1.818253    2.482909
     38          6           0       -0.528329    2.669114   -0.072137
     39          6           0       -0.044926    2.073039   -1.245298
     40          6           0       -0.782858    2.149794   -2.426280
     41          6           0       -2.016670    2.799642   -2.458490
     42          6           0       -2.509465    3.382728   -1.292654
     43          6           0       -1.766035    3.317589   -0.114549
     44          1           0        0.885820    1.509233   -1.188837
     45          1           0       -0.385391    1.701179   -3.334696
     46          1           0       -2.585561    2.857580   -3.382344
     47          1           0       -3.469893    3.890735   -1.300483
     48          1           0       -2.156551    3.778011    0.790911
     49          8           0        0.699073    1.389649    1.674685
     50          1           0       -0.514591    0.225098    0.797077
     51          6           0        2.036046    0.752624    1.172040
     52          8           0        1.854464    0.186590    0.025681
     53          8           0        2.282066   -0.133449    2.246208
     54          1           0        1.578759   -0.805259    2.186833
     55          6           0        3.136405    1.830388    1.263709
     56          1           0        2.927764    2.510628    2.099243
     57          1           0        4.057699    1.298499    1.534378
     58          6           0        0.262014    2.643967    1.233584
     59          1           0       -0.396019    3.045226    2.019125
     60          1           0        1.101480    3.349868    1.155312
     61          6           0       -1.463712    0.107807    3.642485
     62          1           0       -0.575381    0.728184    3.487986
     63          1           0       -2.383993    0.686280    3.548823
     64          1           0       -1.424452   -0.417997    4.597829
     65          6           0        3.378540    2.605740   -0.029171
     66          1           0        3.650493    1.896369   -0.819164
     67          1           0        2.457002    3.085707   -0.379411
     68          6           0        4.470135    3.660851    0.134809
     69          1           0        4.663640    4.195343   -0.800455
     70          1           0        4.186543    4.401363    0.891135
     71          1           0        5.410014    3.202989    0.463027
     72          6           0        4.929879   -2.189900   -0.465905
     73          1           0        5.535258   -2.133535    0.440638
     74          1           0        5.384246   -2.919827   -1.145377
     75          6           0        4.753534   -0.836508   -1.155389
     76          1           0        4.501701   -0.083670   -0.403152
     77          1           0        5.628499   -0.511435   -1.722394
 ---------------------------------------------------------------------

 SCF Done:  E(RM062X) =  -1991.35576959     A.U. after   15 cycles

 The electronic state is 1-A.
 Alpha  occ. eigenvalues --  -90.14791 -19.62391 -19.62143 -19.58580 -19.56915
 Alpha  occ. eigenvalues --  -19.50524 -14.85205 -14.80050 -14.76662 -10.63170
 Alpha  occ. eigenvalues --  -10.62630 -10.62144 -10.62121 -10.61090 -10.59896
 Alpha  occ. eigenvalues --  -10.57785 -10.57772 -10.57614 -10.57011 -10.56990
 Alpha  occ. eigenvalues --  -10.56903 -10.56313 -10.55885 -10.55098 -10.55095
 Alpha  occ. eigenvalues --  -10.55015 -10.54856 -10.54686 -10.54658 -10.54654
 Alpha  occ. eigenvalues --  -10.54457 -10.54084 -10.53099 -10.51096 -10.50987
 Alpha  occ. eigenvalues --  -10.49512  -8.45759  -6.37987  -6.37939  -6.37804
 Alpha  occ. eigenvalues --   -1.22572  -1.13486  -1.12864  -1.10784  -1.08895
 Alpha  occ. eigenvalues --   -1.05872  -1.02503  -0.99759  -0.95854  -0.95199
 Alpha  occ. eigenvalues --   -0.93488  -0.90143  -0.88586  -0.86537  -0.85342
 Alpha  occ. eigenvalues --   -0.84929  -0.84861  -0.83721  -0.83281  -0.83082
 Alpha  occ. eigenvalues --   -0.76584  -0.75949  -0.75572  -0.74250  -0.73283
 Alpha  occ. eigenvalues --   -0.71776  -0.68224  -0.68160  -0.67761  -0.67503
 Alpha  occ. eigenvalues --   -0.66447  -0.65493  -0.64856  -0.63361  -0.60499
 Alpha  occ. eigenvalues --   -0.60369  -0.59962  -0.59444  -0.57916  -0.57692
 Alpha  occ. eigenvalues --   -0.57176  -0.56419  -0.55708  -0.55113  -0.54378
 Alpha  occ. eigenvalues --   -0.53572  -0.53086  -0.52689  -0.52477  -0.52144
 Alpha  occ. eigenvalues --   -0.51697  -0.50804  -0.50164  -0.49918  -0.49347
 Alpha  occ. eigenvalues --   -0.49223  -0.48965  -0.48460  -0.48160  -0.47993
 Alpha  occ. eigenvalues --   -0.47729  -0.47628  -0.47169  -0.46154  -0.45812
 Alpha  occ. eigenvalues --   -0.45221  -0.45128  -0.44377  -0.43957  -0.43210
 Alpha  occ. eigenvalues --   -0.42490  -0.42312  -0.41152  -0.40901  -0.40782
 Alpha  occ. eigenvalues --   -0.40673  -0.40414  -0.40087  -0.39841  -0.39393
 Alpha  occ. eigenvalues --   -0.39185  -0.38896  -0.38628  -0.38339  -0.37834
 Alpha  occ. eigenvalues --   -0.37379  -0.36501  -0.36433  -0.36078  -0.35008
 Alpha  occ. eigenvalues --   -0.34515  -0.34274  -0.31757  -0.31368  -0.29996
 Alpha  occ. eigenvalues --   -0.29218  -0.28816  -0.27750  -0.24159  -0.23912
 Alpha virt. eigenvalues --   -0.01243   0.00560   0.03230   0.03566   0.10140
 Alpha virt. eigenvalues --    0.10590   0.11326   0.12556   0.13172   0.13292
 Alpha virt. eigenvalues --    0.14128   0.14433   0.15008   0.15502   0.15553

 Mulliken charges:
               1
     1  C   -0.306409
     2  C   -0.307812
     3  C   -0.310870
     4  C   -0.059813
     5  C    0.063329
     6  C   -0.307185
     7  H    0.175571
     8  H    0.163256
     9  H    0.166827
    10  H    0.150978
    11  H    0.165035
    12  H    0.206878
    13  H    0.175193
    14  H    0.193315
    15  H    0.161386
    16  H    0.156197
    17  N   -0.437463
    18  C    0.077753
    19  C    0.077953
    20  C   -0.207965
    21  H    0.203245
    22  C   -0.219475
    23  H    0.243117
    24  C    0.449727
    25  H    0.192089
    26  H    0.209854
    27  N   -0.518730
    28  C   -0.166539
    29  H    0.166928
    30  H    0.222538
    31  C   -0.146256
    32  H    0.160474
    33  H    0.205624
    34  N   -0.806375
    35  S    1.239632
    36  O   -0.603167
    37  O   -0.591544
    38  C    0.052042
    39  C   -0.196113
    40  C   -0.192227
    41  C   -0.172313
    42  C   -0.165461
    43  C   -0.205215
    44  H    0.232227
    45  H    0.141791
    46  H    0.156082
    47  H    0.159647
    48  H    0.153902
    49  O   -0.591821
    50  H    0.447008
    51  C    0.716620
    52  O   -0.696554
    53  O   -0.704977
    54  H    0.432290
    55  C   -0.340743
    56  H    0.143650
    57  H    0.150540
    58  C   -0.081860
    59  H    0.132023
    60  H    0.155556
    61  C   -0.665796
    62  H    0.269900
    63  H    0.200117
    64  H    0.222368
    65  C   -0.285435
    66  H    0.141777
    67  H    0.140424
    68  C   -0.474553
    69  H    0.148005
    70  H    0.149667
    71  H    0.148072
    72  C   -0.333842
    73  H    0.184720
    74  H    0.159970
    75  C   -0.338597
    76  H    0.204433
    77  H    0.165386
 Sum of Mulliken charges =  -0.00000

 Dipole moment (field-independent basis, Debye):
    X=             -3.6013    Y=             -1.6850    Z=             -5.7365  Tot=              6.9797
 Quadrupole moment (field-independent basis, Debye-Ang):
   XX=           -208.5919   YY=           -222.1702   ZZ=           -218.5352
   XY=            -13.2763   XZ=             -4.0803   YZ=             10.7106

 Normal termination of Gaussian 16 at Thu Feb  7 10:39:33 2019.
