 Gaussian 16, Revision A.03,
 Gaussian 16:  ES64L-G16RevA.03 25-Dec-2016

 ------------------------------------------
 #p M062X/6-31G* em=gd3 force int=ultrafine
 ------------------------------------------

 -----
 Title
 -----
 Symbolic Z-matrix:
 Charge =  0 Multiplicity = 1

                         Standard orientation:
 ---------------------------------------------------------------------
 Center     Atomic      Atomic             Coordinates (Angstroms)
 Number     Number       Type             X           Y           Z
 ---------------------------------------------------------------------
      1          6           0       -4.842966    0.457124   -0.516839
      2          6           0       -4.995434   -0.814394   -1.356680
      3          6           0       -3.645878   -1.241964   -1.945998
      4          6           0       -2.656748   -1.474841   -0.808069
      5          6           0       -2.470066   -0.187189    0.032813
      6          6           0       -3.817539    0.268622    0.605188
      7          1           0       -3.744181   -2.148240   -2.553373
      8          1           0       -5.391422   -1.625044   -0.730950
      9          1           0       -5.714267   -0.655595   -2.166754
     10          1           0       -4.512370    1.278793   -1.166977
     11          1           0       -5.810680    0.749031   -0.096183
     12          1           0       -3.036584   -2.267352   -0.155377
     13          1           0       -2.130343    0.591372   -0.663116
     14          1           0       -4.176845   -0.471561    1.328956
     15          1           0       -3.654968    1.213516    1.136589
     16          1           0       -3.289128   -0.434641   -2.599688
     17          7           0       -1.318565   -1.925210   -1.251788
     18          6           0       -0.646290   -1.247447   -2.216759
     19          6           0       -0.614201   -2.732554   -0.417991
     20          6           0        0.706208   -1.329757   -2.358466
     21          1           0       -1.243242   -0.608562   -2.854621
     22          6           0        0.740545   -2.856154   -0.488384
     23          1           0       -1.191524   -3.236847    0.349238
     24          6           0        1.476690   -2.070958   -1.415424
     25          1           0        1.183180   -0.762032   -3.146359
     26          1           0        1.232603   -3.471512    0.251553
     27          7           0        2.807805   -2.028867   -1.394917
     28          6           0        3.553717   -2.548517   -0.238611
     29          1           0        3.430056   -3.631719   -0.152959
     30          1           0        3.175018   -2.053247    0.666522
     31          6           0        3.564620   -0.968494   -2.083304
     32          1           0        3.827089   -1.295083   -3.096933
     33          1           0        2.962058   -0.058099   -2.121039
     34          7           0       -1.373200   -0.321916    0.975573
     35         16           0       -1.412303   -1.220864    2.328320
     36          8           0       -2.602339   -2.077264    2.281122
     37          8           0       -0.110038   -1.879037    2.490455
     38          6           0       -0.647630    2.737210   -0.066178
     39          6           0       -0.103492    2.096334   -1.187977
     40          6           0       -0.767945    2.146255   -2.412535
     41          6           0       -1.997635    2.796185   -2.530695
     42          6           0       -2.554532    3.412334   -1.411883
     43          6           0       -1.876900    3.385022   -0.193924
     44          1           0        0.819072    1.527897   -1.071126
     45          1           0       -0.323753    1.672555   -3.286272
     46          1           0       -2.514812    2.828130   -3.485400
     47          1           0       -3.514244    3.915899   -1.485695
     48          1           0       -2.312445    3.865006    0.679961
     49          8           0        0.481902    1.405619    1.621495
     50          1           0       -0.570457    0.397987    1.035137
     51          6           0        2.172636    0.672398    1.183981
     52          8           0        2.022581    0.162782    0.057527
     53          8           0        2.217921   -0.132354    2.291072
     54          1           0        1.534382   -0.821608    2.174764
     55          6           0        3.080760    1.877483    1.387781
     56          1           0        2.707225    2.493879    2.212050
     57          1           0        4.042929    1.465678    1.724847
     58          6           0        0.060737    2.675950    1.281054
     59          1           0       -0.638623    3.067651    2.043702
     60          1           0        0.903484    3.392636    1.266574
     61          6           0       -1.529227   -0.043456    3.658798
     62          1           0       -0.683381    0.637440    3.513878
     63          1           0       -2.482761    0.480552    3.575951
     64          1           0       -1.456547   -0.584511    4.603388
     65          6           0        3.304790    2.700483    0.122595
     66          1           0        3.680814    2.040034   -0.667584
     67          1           0        2.353079    3.093511   -0.252436
     68          6           0        4.281490    3.850618    0.355954
     69          1           0        4.462677    4.419420   -0.561095
     70          1           0        3.896021    4.545216    1.110335
     71          1           0        5.246439    3.476951    0.716455
     72          6           0        4.990026   -2.130758   -0.532880
     73          1           0        5.593804   -2.083987    0.375345
     74          1           0        5.456834   -2.839155   -1.225932
     75          6           0        4.797008   -0.767074   -1.198145
     76          1           0        4.546967   -0.024919   -0.434753
     77          1           0        5.666746   -0.426419   -1.763731
 ---------------------------------------------------------------------

 SCF Done:  E(RM062X) =  -1991.35605007     A.U. after   15 cycles

 The electronic state is 1-A.
 Alpha  occ. eigenvalues --  -90.13889 -19.61724 -19.61423 -19.59695 -19.55097
 Alpha  occ. eigenvalues --  -19.54659 -14.85300 -14.80389 -14.74933 -10.63708
 Alpha  occ. eigenvalues --  -10.63414 -10.62764 -10.62245 -10.60807 -10.59240
 Alpha  occ. eigenvalues --  -10.58378 -10.58284 -10.57973 -10.57170 -10.56644
 Alpha  occ. eigenvalues --  -10.55714 -10.55598 -10.55460 -10.55242 -10.54736
 Alpha  occ. eigenvalues --  -10.54726 -10.54702 -10.54622 -10.54581 -10.54256
 Alpha  occ. eigenvalues --  -10.54047 -10.53661 -10.52981 -10.51690 -10.51571
 Alpha  occ. eigenvalues --  -10.50923  -8.44887  -6.37108  -6.37054  -6.36944
 Alpha  occ. eigenvalues --   -1.21690  -1.14579  -1.13528  -1.09918  -1.09236
 Alpha  occ. eigenvalues --   -1.04819  -1.03906  -1.01162  -0.95701  -0.94688
 Alpha  occ. eigenvalues --   -0.93458  -0.90253  -0.88750  -0.86305  -0.85922
 Alpha  occ. eigenvalues --   -0.84666  -0.84253  -0.83989  -0.82932  -0.82497
 Alpha  occ. eigenvalues --   -0.77095  -0.76696  -0.75787  -0.72720  -0.72372
 Alpha  occ. eigenvalues --   -0.71578  -0.68365  -0.68189  -0.67748  -0.67126
 Alpha  occ. eigenvalues --   -0.66724  -0.65101  -0.64384  -0.63374  -0.60753
 Alpha  occ. eigenvalues --   -0.60399  -0.59936  -0.59239  -0.57959  -0.57547
 Alpha  occ. eigenvalues --   -0.57007  -0.56368  -0.55267  -0.54484  -0.53879
 Alpha  occ. eigenvalues --   -0.53416  -0.52566  -0.52311  -0.52239  -0.51561
 Alpha  occ. eigenvalues --   -0.51413  -0.51288  -0.50859  -0.50111  -0.49838
 Alpha  occ. eigenvalues --   -0.49369  -0.48821  -0.48325  -0.48072  -0.48025
 Alpha  occ. eigenvalues --   -0.47675  -0.47239  -0.47111  -0.46561  -0.46115
 Alpha  occ. eigenvalues --   -0.45263  -0.45096  -0.44704  -0.43833  -0.43247
 Alpha  occ. eigenvalues --   -0.42400  -0.42331  -0.41465  -0.41328  -0.41168
 Alpha  occ. eigenvalues --   -0.40893  -0.40441  -0.40031  -0.39997  -0.39502
 Alpha  occ. eigenvalues --   -0.39420  -0.38809  -0.38387  -0.38001  -0.37820
 Alpha  occ. eigenvalues --   -0.37424  -0.37219  -0.36919  -0.35668  -0.35563
 Alpha  occ. eigenvalues --   -0.34899  -0.34160  -0.32618  -0.30338  -0.29516
 Alpha  occ. eigenvalues --   -0.28674  -0.28177  -0.27881  -0.26360  -0.24829
 Alpha virt. eigenvalues --   -0.01426   0.00389   0.03577   0.04187   0.10219
 Alpha virt. eigenvalues --    0.10918   0.11543   0.12076   0.13375   0.13430
 Alpha virt. eigenvalues --    0.14018   0.14635   0.14877   0.15321   0.15415

 Mulliken charges:
               1
     1  C   -0.306881
     2  C   -0.307198
     3  C   -0.311628
     4  C   -0.063705
     5  C    0.068167
     6  C   -0.307087
     7  H    0.173405
     8  H    0.162635
     9  H    0.165563
    10  H    0.152602
    11  H    0.163499
    12  H    0.209067
    13  H    0.171674
    14  H    0.189032
    15  H    0.160933
    16  H    0.156765
    17  N   -0.433480
    18  C    0.087706
    19  C    0.088016
    20  C   -0.216947
    21  H    0.205441
    22  C   -0.224672
    23  H    0.248209
    24  C    0.439403
    25  H    0.192444
    26  H    0.209324
    27  N   -0.519741
    28  C   -0.161677
    29  H    0.171449
    30  H    0.210982
    31  C   -0.146488
    32  H    0.164845
    33  H    0.202684
    34  N   -0.818166
    35  S    1.241299
    36  O   -0.609629
    37  O   -0.609244
    38  C    0.054909
    39  C   -0.197824
    40  C   -0.191195
    41  C   -0.175076
    42  C   -0.163171
    43  C   -0.206418
    44  H    0.221578
    45  H    0.136908
    46  H    0.153745
    47  H    0.157820
    48  H    0.153899
    49  O   -0.662819
    50  H    0.454100
    51  C    0.681737
    52  O   -0.603875
    53  O   -0.671700
    54  H    0.452306
    55  C   -0.341527
    56  H    0.169476
    57  H    0.151802
    58  C   -0.047722
    59  H    0.105230
    60  H    0.127967
    61  C   -0.670457
    62  H    0.267097
    63  H    0.198493
    64  H    0.219273
    65  C   -0.289263
    66  H    0.141895
    67  H    0.153916
    68  C   -0.477079
    69  H    0.152204
    70  H    0.153920
    71  H    0.148558
    72  C   -0.334712
    73  H    0.184782
    74  H    0.163843
    75  C   -0.336964
    76  H    0.197369
    77  H    0.168373
 Sum of Mulliken charges =  -0.00000

 Dipole moment (field-independent basis, Debye):
    X=             -1.7921    Y=             -1.9831    Z=             -6.0048  Tot=              6.5728
 Quadrupole moment (field-independent basis, Debye-Ang):
   XX=           -203.8440   YY=           -224.8475   ZZ=           -219.0184
   XY=            -12.5062   XZ=             -3.2279   YZ=             10.4955

 Normal termination of Gaussian 16 at Thu Feb  7 18:55:09 2019.
