 Gaussian 16, Revision A.03,
 Gaussian 16:  ES64L-G16RevA.03 25-Dec-2016

 ------------------------------------------
 #p M062X/6-31G* em=gd3 force int=ultrafine
 ------------------------------------------

 -----
 Title
 -----
 Symbolic Z-matrix:
 Charge =  0 Multiplicity = 1

                         Standard orientation:
 ---------------------------------------------------------------------
 Center     Atomic      Atomic             Coordinates (Angstroms)
 Number     Number       Type             X           Y           Z
 ---------------------------------------------------------------------
      1          6           0       -4.782872    0.350486   -0.627128
      2          6           0       -4.931457   -0.947635   -1.426294
      3          6           0       -3.583528   -1.384176   -2.013225
      4          6           0       -2.590878   -1.568368   -0.871292
      5          6           0       -2.395643   -0.243418   -0.088640
      6          6           0       -3.740472    0.215012    0.487268
      7          1           0       -3.679015   -2.312408   -2.586807
      8          1           0       -5.314396   -1.742190   -0.772529
      9          1           0       -5.659428   -0.818820   -2.233415
     10          1           0       -4.477000    1.156161   -1.307206
     11          1           0       -5.748094    0.640026   -0.198952
     12          1           0       -2.971563   -2.327119   -0.180549
     13          1           0       -2.075661    0.512231   -0.817637
     14          1           0       -4.085317   -0.506624    1.235249
     15          1           0       -3.587448    1.177921    0.985911
     16          1           0       -3.236219   -0.598932   -2.698262
     17          7           0       -1.252550   -2.036138   -1.287833
     18          6           0       -0.567215   -1.374020   -2.256880
     19          6           0       -0.554068   -2.792761   -0.398918
     20          6           0        0.790528   -1.410784   -2.340392
     21          1           0       -1.162184   -0.785477   -2.944259
     22          6           0        0.804512   -2.855123   -0.400592
     23          1           0       -1.145727   -3.289505    0.362382
     24          6           0        1.543209   -2.058325   -1.315502
     25          1           0        1.279624   -0.862422   -3.133854
     26          1           0        1.290821   -3.414329    0.386104
     27          7           0        2.862354   -1.929645   -1.222476
     28          6           0        3.585011   -2.314030    0.000447
     29          1           0        3.483734   -3.386649    0.187323
     30          1           0        3.167252   -1.738082    0.839807
     31          6           0        3.586310   -0.892550   -1.967886
     32          1           0        3.840490   -1.259260   -2.969979
     33          1           0        2.951012   -0.006240   -2.050169
     34          7           0       -1.295883   -0.311588    0.860424
     35         16           0       -1.370308   -1.145678    2.257511
     36          8           0       -2.557817   -2.005740    2.226352
     37          8           0       -0.074223   -1.789662    2.490348
     38          6           0       -0.640788    2.703046    0.049172
     39          6           0       -0.166625    2.241532   -1.188576
     40          6           0       -0.960918    2.324555   -2.330189
     41          6           0       -2.247195    2.861466   -2.268246
     42          6           0       -2.732649    3.315495   -1.045614
     43          6           0       -1.931099    3.237344    0.093764
     44          1           0        0.805985    1.765633   -1.228647
     45          1           0       -0.566202    1.973628   -3.281376
     46          1           0       -2.860761    2.930210   -3.162345
     47          1           0       -3.731911    3.736438   -0.976597
     48          1           0       -2.317499    3.607341    1.041365
     49          8           0        0.674532    1.579705    1.907094
     50          1           0       -0.303826   -0.063705    0.557859
     51          6           0        1.799751    0.841385    1.262892
     52          8           0        1.382924    0.231166    0.171156
     53          8           0        2.189931   -0.038719    2.301497
     54          1           0        1.486853   -0.711663    2.344610
     55          6           0        3.014031    1.798714    1.121165
     56          1           0        2.989179    2.522146    1.946201
     57          1           0        3.899137    1.176035    1.304415
     58          6           0        0.213226    2.764658    1.318734
     59          1           0       -0.403863    3.247115    2.087719
     60          1           0        1.052743    3.450190    1.130946
     61          6           0       -1.570603    0.079715    3.529737
     62          1           0       -0.711127    0.750031    3.440736
     63          1           0       -2.509680    0.606048    3.350009
     64          1           0       -1.590513   -0.437141    4.490631
     65          6           0        3.192689    2.514059   -0.215014
     66          1           0        3.114271    1.778563   -1.022884
     67          1           0        2.387557    3.234356   -0.395923
     68          6           0        4.536588    3.237308   -0.295516
     69          1           0        4.665666    3.748592   -1.254605
     70          1           0        4.624129    3.985973    0.498715
     71          1           0        5.368794    2.534322   -0.172664
     72          6           0        5.020403   -1.903319   -0.309873
     73          1           0        5.605184   -1.752307    0.599369
     74          1           0        5.511487   -2.671504   -0.917114
     75          6           0        4.828626   -0.615762   -1.115505
     76          1           0        4.609077    0.207998   -0.432011
     77          1           0        5.695905   -0.345145   -1.721503
 ---------------------------------------------------------------------

 SCF Done:  E(RM062X) =  -1991.35890346     A.U. after   14 cycles

 The electronic state is 1-A.
 Alpha  occ. eigenvalues --  -90.14065 -19.61685 -19.61666 -19.58769 -19.56732
 Alpha  occ. eigenvalues --  -19.51384 -14.85130 -14.80458 -14.75503 -10.63390
 Alpha  occ. eigenvalues --  -10.62764 -10.62322 -10.62085 -10.60663 -10.59229
 Alpha  occ. eigenvalues --  -10.58680 -10.57937 -10.57890 -10.57076 -10.56868
 Alpha  occ. eigenvalues --  -10.56658 -10.55612 -10.55575 -10.55175 -10.55000
 Alpha  occ. eigenvalues --  -10.54777 -10.54723 -10.54658 -10.54509 -10.54337
 Alpha  occ. eigenvalues --  -10.54260 -10.54214 -10.53102 -10.51655 -10.51554
 Alpha  occ. eigenvalues --  -10.49793  -8.45044  -6.37259  -6.37238  -6.37082
 Alpha  occ. eigenvalues --   -1.21896  -1.13658  -1.13478  -1.10146  -1.09356
 Alpha  occ. eigenvalues --   -1.05919  -1.01606  -0.99408  -0.95688  -0.94953
 Alpha  occ. eigenvalues --   -0.93461  -0.90246  -0.88754  -0.85905  -0.85814
 Alpha  occ. eigenvalues --   -0.84796  -0.84654  -0.84315  -0.83024  -0.82614
 Alpha  occ. eigenvalues --   -0.76644  -0.76361  -0.75831  -0.74397  -0.72714
 Alpha  occ. eigenvalues --   -0.71574  -0.68337  -0.68285  -0.67922  -0.67155
 Alpha  occ. eigenvalues --   -0.66764  -0.65197  -0.64869  -0.63521  -0.60582
 Alpha  occ. eigenvalues --   -0.60407  -0.59801  -0.58859  -0.57829  -0.57557
 Alpha  occ. eigenvalues --   -0.57133  -0.56423  -0.55710  -0.55157  -0.54169
 Alpha  occ. eigenvalues --   -0.53464  -0.52633  -0.52395  -0.52358  -0.51883
 Alpha  occ. eigenvalues --   -0.51525  -0.51080  -0.50941  -0.49845  -0.49598
 Alpha  occ. eigenvalues --   -0.49160  -0.48805  -0.48203  -0.48107  -0.48071
 Alpha  occ. eigenvalues --   -0.47624  -0.47429  -0.46895  -0.46471  -0.46093
 Alpha  occ. eigenvalues --   -0.44922  -0.44674  -0.44092  -0.43886  -0.43250
 Alpha  occ. eigenvalues --   -0.42448  -0.42082  -0.41539  -0.41426  -0.41185
 Alpha  occ. eigenvalues --   -0.40877  -0.40446  -0.40017  -0.39850  -0.39475
 Alpha  occ. eigenvalues --   -0.39246  -0.39042  -0.38451  -0.37883  -0.37580
 Alpha  occ. eigenvalues --   -0.37359  -0.36730  -0.36568  -0.35682  -0.34873
 Alpha  occ. eigenvalues --   -0.34351  -0.33888  -0.31736  -0.30986  -0.29722
 Alpha  occ. eigenvalues --   -0.28883  -0.28566  -0.27583  -0.24984  -0.24519
 Alpha virt. eigenvalues --   -0.01433   0.00476   0.03610   0.03823   0.10187
 Alpha virt. eigenvalues --    0.11057   0.11596   0.12104   0.13217   0.13554
 Alpha virt. eigenvalues --    0.14201   0.14677   0.14807   0.15332   0.15599

 Mulliken charges:
               1
     1  C   -0.306088
     2  C   -0.306906
     3  C   -0.310124
     4  C   -0.059263
     5  C    0.057173
     6  C   -0.311858
     7  H    0.173733
     8  H    0.162826
     9  H    0.165139
    10  H    0.150652
    11  H    0.162943
    12  H    0.208451
    13  H    0.172515
    14  H    0.193513
    15  H    0.163370
    16  H    0.153760
    17  N   -0.432060
    18  C    0.069594
    19  C    0.064319
    20  C   -0.204809
    21  H    0.206957
    22  C   -0.209048
    23  H    0.245849
    24  C    0.449911
    25  H    0.190959
    26  H    0.211756
    27  N   -0.528594
    28  C   -0.174943
    29  H    0.169918
    30  H    0.235501
    31  C   -0.154015
    32  H    0.168098
    33  H    0.200836
    34  N   -0.817198
    35  S    1.253894
    36  O   -0.611899
    37  O   -0.609184
    38  C    0.090189
    39  C   -0.178598
    40  C   -0.188935
    41  C   -0.170577
    42  C   -0.163610
    43  C   -0.212170
    44  H    0.203955
    45  H    0.141139
    46  H    0.154596
    47  H    0.158310
    48  H    0.152230
    49  O   -0.548022
    50  H    0.449744
    51  C    0.727739
    52  O   -0.724468
    53  O   -0.718071
    54  H    0.445761
    55  C   -0.337717
    56  H    0.150150
    57  H    0.148806
    58  C   -0.094270
    59  H    0.141273
    60  H    0.146710
    61  C   -0.662726
    62  H    0.271112
    63  H    0.196282
    64  H    0.217320
    65  C   -0.295806
    66  H    0.141515
    67  H    0.147017
    68  C   -0.475724
    69  H    0.149414
    70  H    0.156234
    71  H    0.143870
    72  C   -0.331862
    73  H    0.187583
    74  H    0.163586
    75  C   -0.344187
    76  H    0.194781
    77  H    0.171750
 Sum of Mulliken charges =  -0.00000

 Dipole moment (field-independent basis, Debye):
    X=             -2.1578    Y=             -1.8769    Z=             -6.4836  Tot=              7.0863
 Quadrupole moment (field-independent basis, Debye-Ang):
   XX=           -204.8714   YY=           -223.2605   ZZ=           -219.8296
   XY=            -12.1051   XZ=             -5.2899   YZ=             10.1222

 Normal termination of Gaussian 16 at Thu Feb  7 16:49:26 2019.
