 Gaussian 16, Revision A.03,
 Gaussian 16:  ES64L-G16RevA.03 25-Dec-2016

 ------------------------------------------
 #p M062X/6-31G* em=gd3 force int=ultrafine
 ------------------------------------------

 -----
 Title
 -----
 Symbolic Z-matrix:
 Charge =  0 Multiplicity = 1

                         Standard orientation:
 ---------------------------------------------------------------------
 Center     Atomic      Atomic             Coordinates (Angstroms)
 Number     Number       Type             X           Y           Z
 ---------------------------------------------------------------------
      1          6           0       -4.842793    0.461423   -0.517310
      2          6           0       -4.996302   -0.809890   -1.357271
      3          6           0       -3.647152   -1.238651   -1.946651
      4          6           0       -2.658224   -1.472781   -0.808820
      5          6           0       -2.470886   -0.185458    0.032205
      6          6           0       -3.817679    0.271787    0.604726
      7          1           0       -3.746266   -2.144693   -2.554212
      8          1           0       -5.392995   -1.620229   -0.731582
      9          1           0       -5.714999   -0.650359   -2.167298
     10          1           0       -4.511341    1.282885   -1.167266
     11          1           0       -5.810223    0.754165   -0.096625
     12          1           0       -3.038830   -2.265031   -0.156256
     13          1           0       -2.129767    0.592951   -0.663159
     14          1           0       -4.177708   -0.468096    1.328425
     15          1           0       -3.654002    1.216423    1.136260
     16          1           0       -3.289539   -0.431548   -2.600141
     17          7           0       -1.320441   -1.924116   -1.252435
     18          6           0       -0.647371   -1.246645   -2.217249
     19          6           0       -0.616681   -2.732190   -0.418648
     20          6           0        0.705009   -1.329745   -2.358569
     21          1           0       -1.243771   -0.607419   -2.855271
     22          6           0        0.737909   -2.856506   -0.488601
     23          1           0       -1.194528   -3.236444    0.348204
     24          6           0        1.474903   -2.071305   -1.415176
     25          1           0        1.182616   -0.762336   -3.146304
     26          1           0        1.229459   -3.472487    0.251151
     27          7           0        2.805776   -2.030347   -1.394539
     28          6           0        3.551314   -2.550901   -0.238352
     29          1           0        3.426422   -3.633997   -0.152797
     30          1           0        3.173267   -2.054674    0.666514
     31          6           0        3.563604   -0.970711   -2.082931
     32          1           0        3.825599   -1.297594   -3.096616
     33          1           0        2.961867   -0.059782   -2.120080
     34          7           0       -1.375093   -0.321587    0.975893
     35         16           0       -1.413992   -1.220775    2.328955
     36          8           0       -2.605878   -2.074257    2.281203
     37          8           0       -0.113118   -1.881003    2.490139
     38          6           0       -0.642524    2.735110   -0.066044
     39          6           0       -0.100023    2.094915   -1.188915
     40          6           0       -0.765556    2.146633   -2.412837
     41          6           0       -1.994499    2.798111   -2.529508
     42          6           0       -2.549735    3.414012   -1.409688
     43          6           0       -1.871231    3.384741   -0.192161
     44          1           0        0.822009    1.525331   -1.072720
     45          1           0       -0.322476    1.673145   -3.287217
     46          1           0       -2.512321    2.831466   -3.483839
     47          1           0       -3.508843    3.918912   -1.482626
     48          1           0       -2.305923    3.864972    0.682047
     49          8           0        0.492195    1.402692    1.620962
     50          1           0       -0.570256    0.390905    1.029287
     51          6           0        2.162352    0.677377    1.185159
     52          8           0        2.018447    0.164179    0.057097
     53          8           0        2.216473   -0.132376    2.291233
     54          1           0        1.534875   -0.823012    2.174290
     55          6           0        3.080157    1.876516    1.387901
     56          1           0        2.712772    2.495342    2.213233
     57          1           0        4.040432    1.458605    1.722668
     58          6           0        0.068493    2.673393    1.279889
     59          1           0       -0.630504    3.061610    2.044342
     60          1           0        0.909715    3.391132    1.265699
     61          6           0       -1.528756   -0.042894    3.659055
     62          1           0       -0.681475    0.636267    3.514717
     63          1           0       -2.481390    0.482745    3.576105
     64          1           0       -1.457098   -0.584052    4.603652
     65          6           0        3.306982    2.698596    0.122620
     66          1           0        3.682127    2.036833   -0.666851
     67          1           0        2.356462    3.093325   -0.253756
     68          6           0        4.285620    3.846982    0.356141
     69          1           0        4.468035    4.415573   -0.560809
     70          1           0        3.901077    4.542141    1.110520
     71          1           0        5.249785    3.471675    0.717000
     72          6           0        4.988015   -2.134814   -0.533016
     73          1           0        5.592055   -2.088906    0.375078
     74          1           0        5.453892   -2.843597   -1.226339
     75          6           0        4.796163   -0.770741   -1.197765
     76          1           0        4.546187   -0.028876   -0.434055
     77          1           0        5.666189   -0.430606   -1.763252
 ---------------------------------------------------------------------

 SCF Done:  E(RM062X) =  -1991.35587898     A.U. after   15 cycles

 The electronic state is 1-A.
 Alpha  occ. eigenvalues --  -90.13953 -19.61777 -19.61471 -19.59502 -19.55324
 Alpha  occ. eigenvalues --  -19.54374 -14.85291 -14.80366 -14.75039 -10.63612
 Alpha  occ. eigenvalues --  -10.63396 -10.62752 -10.62236 -10.60828 -10.59286
 Alpha  occ. eigenvalues --  -10.58336 -10.58242 -10.57958 -10.57155 -10.56662
 Alpha  occ. eigenvalues --  -10.55773 -10.55618 -10.55566 -10.55202 -10.54753
 Alpha  occ. eigenvalues --  -10.54732 -10.54686 -10.54653 -10.54607 -10.54291
 Alpha  occ. eigenvalues --  -10.54096 -10.53716 -10.52992 -10.51632 -10.51530
 Alpha  occ. eigenvalues --  -10.50819  -8.44949  -6.37171  -6.37117  -6.37007
 Alpha  occ. eigenvalues --   -1.21756  -1.14364  -1.13521  -1.09980  -1.09210
 Alpha  occ. eigenvalues --   -1.04722  -1.03840  -1.01257  -0.95708  -0.94724
 Alpha  occ. eigenvalues --   -0.93464  -0.90243  -0.88737  -0.86232  -0.85971
 Alpha  occ. eigenvalues --   -0.84680  -0.84218  -0.84044  -0.82960  -0.82543
 Alpha  occ. eigenvalues --   -0.77005  -0.76686  -0.75771  -0.72761  -0.72476
 Alpha  occ. eigenvalues --   -0.71593  -0.68346  -0.68158  -0.67759  -0.67131
 Alpha  occ. eigenvalues --   -0.66715  -0.65132  -0.64425  -0.63376  -0.60683
 Alpha  occ. eigenvalues --   -0.60394  -0.59889  -0.59307  -0.57921  -0.57590
 Alpha  occ. eigenvalues --   -0.57043  -0.56363  -0.55296  -0.54517  -0.53907
 Alpha  occ. eigenvalues --   -0.53426  -0.52602  -0.52340  -0.52204  -0.51542
 Alpha  occ. eigenvalues --   -0.51416  -0.51273  -0.50832  -0.50095  -0.49815
 Alpha  occ. eigenvalues --   -0.49317  -0.48840  -0.48307  -0.48116  -0.48001
 Alpha  occ. eigenvalues --   -0.47708  -0.47256  -0.47092  -0.46614  -0.46104
 Alpha  occ. eigenvalues --   -0.45203  -0.45111  -0.44722  -0.43872  -0.43240
 Alpha  occ. eigenvalues --   -0.42411  -0.42321  -0.41421  -0.41266  -0.41179
 Alpha  occ. eigenvalues --   -0.40832  -0.40439  -0.40058  -0.39996  -0.39488
 Alpha  occ. eigenvalues --   -0.39402  -0.38825  -0.38414  -0.37984  -0.37848
 Alpha  occ. eigenvalues --   -0.37389  -0.37178  -0.36893  -0.35599  -0.35567
 Alpha  occ. eigenvalues --   -0.34919  -0.34178  -0.32557  -0.30401  -0.29548
 Alpha  occ. eigenvalues --   -0.28667  -0.28148  -0.27816  -0.26393  -0.24851
 Alpha virt. eigenvalues --   -0.01412   0.00403   0.03550   0.04145   0.10220
 Alpha virt. eigenvalues --    0.10894   0.11542   0.12115   0.13371   0.13428
 Alpha virt. eigenvalues --    0.14037   0.14611   0.15123   0.15313   0.15426

 Mulliken charges:
               1
     1  C   -0.306872
     2  C   -0.307249
     3  C   -0.311628
     4  C   -0.063531
     5  C    0.067964
     6  C   -0.307065
     7  H    0.173554
     8  H    0.162682
     9  H    0.165661
    10  H    0.152595
    11  H    0.163604
    12  H    0.209032
    13  H    0.171920
    14  H    0.189201
    15  H    0.160846
    16  H    0.156778
    17  N   -0.433742
    18  C    0.087311
    19  C    0.087668
    20  C   -0.216616
    21  H    0.205242
    22  C   -0.224528
    23  H    0.247936
    24  C    0.440152
    25  H    0.192425
    26  H    0.209341
    27  N   -0.519689
    28  C   -0.161764
    29  H    0.171145
    30  H    0.211639
    31  C   -0.146397
    32  H    0.164540
    33  H    0.202889
    34  N   -0.818007
    35  S    1.240932
    36  O   -0.609252
    37  O   -0.607830
    38  C    0.054457
    39  C   -0.198050
    40  C   -0.191304
    41  C   -0.174917
    42  C   -0.163308
    43  C   -0.206360
    44  H    0.222826
    45  H    0.137210
    46  H    0.153932
    47  H    0.157974
    48  H    0.153936
    49  O   -0.659265
    50  H    0.454022
    51  C    0.683691
    52  O   -0.609232
    53  O   -0.673710
    54  H    0.450993
    55  C   -0.340840
    56  H    0.167513
    57  H    0.151535
    58  C   -0.049703
    59  H    0.106856
    60  H    0.130053
    61  C   -0.670247
    62  H    0.266979
    63  H    0.198675
    64  H    0.219664
    65  C   -0.289005
    66  H    0.142028
    67  H    0.152884
    68  C   -0.476917
    69  H    0.151905
    70  H    0.153525
    71  H    0.148566
    72  C   -0.334713
    73  H    0.184746
    74  H    0.163576
    75  C   -0.337061
    76  H    0.198111
    77  H    0.168088
 Sum of Mulliken charges =  -0.00000

 Dipole moment (field-independent basis, Debye):
    X=             -1.9249    Y=             -1.9517    Z=             -5.9840  Tot=              6.5820
 Quadrupole moment (field-independent basis, Debye-Ang):
   XX=           -204.1410   YY=           -224.7212   ZZ=           -218.9319
   XY=            -12.6123   XZ=             -3.3440   YZ=             10.5083

 Normal termination of Gaussian 16 at Thu Feb  7 18:51:41 2019.
