 Gaussian 16, Revision A.03,
 Gaussian 16:  ES64L-G16RevA.03 25-Dec-2016

 ------------------------------------------
 #p M062X/6-31G* em=gd3 force int=ultrafine
 ------------------------------------------

 -----
 Title
 -----
 Symbolic Z-matrix:
 Charge =  0 Multiplicity = 1

                         Standard orientation:
 ---------------------------------------------------------------------
 Center     Atomic      Atomic             Coordinates (Angstroms)
 Number     Number       Type             X           Y           Z
 ---------------------------------------------------------------------
      1          6           0       -4.862272    0.026295   -0.410279
      2          6           0       -4.880206   -1.244529   -1.265223
      3          6           0       -3.494611   -1.520695   -1.861166
      4          6           0       -2.489433   -1.652244   -0.721801
      5          6           0       -2.412703   -0.342253    0.111408
      6          6           0       -3.804193   -0.052448    0.694231
      7          1           0       -3.499949   -2.428820   -2.474786
      8          1           0       -5.183299   -2.099952   -0.647252
      9          1           0       -5.615718   -1.155611   -2.071427
     10          1           0       -4.636584    0.886616   -1.055987
     11          1           0       -5.853148    0.200819    0.022536
     12          1           0       -2.791777   -2.470278   -0.062833
     13          1           0       -2.208257    0.452011   -0.621494
     14          1           0       -4.062537   -0.836535    1.417288
     15          1           0       -3.747986    0.899349    1.236753
     16          1           0       -3.227734   -0.675453   -2.510695
     17          7           0       -1.118142   -1.988673   -1.169389
     18          6           0       -0.515341   -1.273561   -2.146560
     19          6           0       -0.354766   -2.753710   -0.353922
     20          6           0        0.837755   -1.286133   -2.328286
     21          1           0       -1.165180   -0.666095   -2.763266
     22          6           0        1.004387   -2.814589   -0.471743
     23          1           0       -0.883701   -3.274088    0.437295
     24          6           0        1.667355   -2.001396   -1.421495
     25          1           0        1.262299   -0.697923   -3.131136
     26          1           0        1.548932   -3.404293    0.252344
     27          7           0        3.002988   -1.899423   -1.448037
     28          6           0        3.816113   -2.432648   -0.348757
     29          1           0        3.761098   -3.525006   -0.320487
     30          1           0        3.439788   -2.030210    0.602273
     31          6           0        3.686956   -0.798547   -2.142870
     32          1           0        3.935278   -1.095310   -3.169414
     33          1           0        3.041997    0.083856   -2.159693
     34          7           0       -1.291462   -0.300758    1.028733
     35         16           0       -1.251462   -1.267919    2.276276
     36          8           0       -2.230703   -2.375837    2.217401
     37          8           0        0.150188   -1.708440    2.516275
     38          6           0       -1.234083    2.831850   -0.175986
     39          6           0       -0.443261    2.210159   -1.146824
     40          6           0       -0.909084    2.096616   -2.455594
     41          6           0       -2.174303    2.568003   -2.804178
     42          6           0       -2.971491    3.172255   -1.833387
     43          6           0       -2.498367    3.304986   -0.530286
     44          1           0        0.511789    1.775531   -0.857700
     45          1           0       -0.280123    1.629165   -3.210122
     46          1           0       -2.537075    2.469254   -3.823077
     47          1           0       -3.962386    3.536781   -2.088899
     48          1           0       -3.124652    3.769271    0.229030
     49          8           0        0.169685    1.963829    1.607783
     50          1           0       -0.269278    1.099198    1.364541
     51          6           0        2.430315    0.668759    1.280564
     52          8           0        2.159922    0.220278    0.179003
     53          8           0        2.145953    0.054932    2.415804
     54          1           0        1.480752   -0.675586    2.275892
     55          6           0        3.181755    1.961741    1.494353
     56          1           0        2.724402    2.464393    2.350967
     57          1           0        4.212014    1.708855    1.784821
     58          6           0       -0.737725    2.965353    1.250121
     59          1           0       -1.608413    2.990301    1.925996
     60          1           0       -0.219348    3.927093    1.368158
     61          6           0       -1.653060   -0.280407    3.714884
     62          1           0       -0.964322    0.567766    3.724896
     63          1           0       -2.685096    0.061872    3.615739
     64          1           0       -1.532230   -0.892814    4.609554
     65          6           0        3.167905    2.854510    0.260775
     66          1           0        3.581540    2.305337   -0.593854
     67          1           0        2.124359    3.073663    0.009690
     68          6           0        3.939351    4.152461    0.478656
     69          1           0        3.918326    4.783088   -0.414976
     70          1           0        3.508414    4.727732    1.304795
     71          1           0        4.988218    3.953748    0.725423
     72          6           0        5.217945   -1.915683   -0.660017
     73          1           0        5.837865   -1.853229    0.236527
     74          1           0        5.713742   -2.578880   -1.376537
     75          6           0        4.937578   -0.551498   -1.295044
     76          1           0        4.690295    0.175267   -0.515393
     77          1           0        5.771953   -0.166198   -1.884633
 ---------------------------------------------------------------------

 SCF Done:  E(RM062X) =  -1991.39067552     A.U. after   15 cycles

 The electronic state is 1-A.
 Alpha  occ. eigenvalues --  -90.10404 -19.63409 -19.60129 -19.59359 -19.58640
 Alpha  occ. eigenvalues --  -19.58382 -14.84820 -14.80542 -14.69446 -10.65452
 Alpha  occ. eigenvalues --  -10.63248 -10.62377 -10.61539 -10.59169 -10.59150
 Alpha  occ. eigenvalues --  -10.59017 -10.57811 -10.57417 -10.56864 -10.56649
 Alpha  occ. eigenvalues --  -10.56098 -10.55786 -10.55479 -10.54967 -10.54922
 Alpha  occ. eigenvalues --  -10.54857 -10.54571 -10.54532 -10.54488 -10.53810
 Alpha  occ. eigenvalues --  -10.53729 -10.53558 -10.53114 -10.52900 -10.52652
 Alpha  occ. eigenvalues --  -10.52483  -8.41371  -6.33609  -6.33516  -6.33436
 Alpha  occ. eigenvalues --   -1.19146  -1.17947  -1.12953  -1.10405  -1.09861
 Alpha  occ. eigenvalues --   -1.09191  -1.06214  -0.97569  -0.95245  -0.94840
 Alpha  occ. eigenvalues --   -0.92196  -0.89862  -0.88608  -0.87973  -0.85025
 Alpha  occ. eigenvalues --   -0.84973  -0.83651  -0.83507  -0.83302  -0.80229
 Alpha  occ. eigenvalues --   -0.79072  -0.76375  -0.75675  -0.74674  -0.70953
 Alpha  occ. eigenvalues --   -0.70199  -0.69028  -0.68753  -0.68373  -0.67981
 Alpha  occ. eigenvalues --   -0.65717  -0.64726  -0.63966  -0.63440  -0.61668
 Alpha  occ. eigenvalues --   -0.60288  -0.59414  -0.58940  -0.58379  -0.56178
 Alpha  occ. eigenvalues --   -0.55500  -0.55159  -0.55074  -0.53998  -0.53661
 Alpha  occ. eigenvalues --   -0.53434  -0.53087  -0.52321  -0.51986  -0.51732
 Alpha  occ. eigenvalues --   -0.51182  -0.51022  -0.50613  -0.50288  -0.49834
 Alpha  occ. eigenvalues --   -0.49636  -0.49412  -0.48858  -0.48379  -0.48023
 Alpha  occ. eigenvalues --   -0.47761  -0.47172  -0.46967  -0.46855  -0.45957
 Alpha  occ. eigenvalues --   -0.45891  -0.45258  -0.43975  -0.43653  -0.43426
 Alpha  occ. eigenvalues --   -0.42759  -0.42430  -0.42291  -0.41927  -0.41853
 Alpha  occ. eigenvalues --   -0.41164  -0.40814  -0.40614  -0.39932  -0.39518
 Alpha  occ. eigenvalues --   -0.39382  -0.39170  -0.38688  -0.38375  -0.37773
 Alpha  occ. eigenvalues --   -0.37400  -0.36303  -0.35951  -0.35395  -0.35109
 Alpha  occ. eigenvalues --   -0.34430  -0.33173  -0.32138  -0.31685  -0.31520
 Alpha  occ. eigenvalues --   -0.29823  -0.28877  -0.28330  -0.27581  -0.25464
 Alpha virt. eigenvalues --   -0.01023   0.00643   0.03348   0.03832   0.09083
 Alpha virt. eigenvalues --    0.10101   0.10971   0.11708   0.13008   0.13380
 Alpha virt. eigenvalues --    0.13771   0.14171   0.15263   0.15569   0.15730

 Mulliken charges:
               1
     1  C   -0.304013
     2  C   -0.304224
     3  C   -0.309844
     4  C   -0.073617
     5  C    0.061784
     6  C   -0.305504
     7  H    0.165745
     8  H    0.160895
     9  H    0.159231
    10  H    0.146887
    11  H    0.156619
    12  H    0.213295
    13  H    0.141251
    14  H    0.180295
    15  H    0.148180
    16  H    0.151664
    17  N   -0.424747
    18  C    0.100748
    19  C    0.084793
    20  C   -0.228226
    21  H    0.206055
    22  C   -0.227279
    23  H    0.263875
    24  C    0.428844
    25  H    0.188315
    26  H    0.206633
    27  N   -0.529947
    28  C   -0.156201
    29  H    0.178446
    30  H    0.198720
    31  C   -0.147488
    32  H    0.169458
    33  H    0.196791
    34  N   -0.754744
    35  S    1.248563
    36  O   -0.646948
    37  O   -0.671168
    38  C    0.048658
    39  C   -0.176938
    40  C   -0.187012
    41  C   -0.170281
    42  C   -0.162782
    43  C   -0.196918
    44  H    0.199868
    45  H    0.140101
    46  H    0.156543
    47  H    0.161722
    48  H    0.155929
    49  O   -0.708242
    50  H    0.479374
    51  C    0.640670
    52  O   -0.524028
    53  O   -0.642687
    54  H    0.485490
    55  C   -0.366311
    56  H    0.199199
    57  H    0.163875
    58  C   -0.070613
    59  H    0.129599
    60  H    0.162892
    61  C   -0.654870
    62  H    0.217609
    63  H    0.188256
    64  H    0.208372
    65  C   -0.286767
    66  H    0.142685
    67  H    0.170062
    68  C   -0.480586
    69  H    0.158125
    70  H    0.158906
    71  H    0.149153
    72  C   -0.337545
    73  H    0.183738
    74  H    0.170120
    75  C   -0.335559
    76  H    0.183597
    77  H    0.173456
 Sum of Mulliken charges =  -0.00000

 Dipole moment (field-independent basis, Debye):
    X=              1.5996    Y=             -0.4191    Z=             -6.4711  Tot=              6.6791
 Quadrupole moment (field-independent basis, Debye-Ang):
   XX=           -197.4465   YY=           -224.1407   ZZ=           -221.3316
   XY=            -12.3064   XZ=             -1.7271   YZ=             12.1486

 Normal termination of Gaussian 16 at Fri Feb  8 01:52:28 2019.
