 Gaussian 16, Revision A.03,
 Gaussian 16:  ES64L-G16RevA.03 25-Dec-2016

 ------------------------------------------
 #p M062X/6-31G* em=gd3 force int=ultrafine
 ------------------------------------------

 -----
 Title
 -----
 Symbolic Z-matrix:
 Charge =  0 Multiplicity = 1

                         Standard orientation:
 ---------------------------------------------------------------------
 Center     Atomic      Atomic             Coordinates (Angstroms)
 Number     Number       Type             X           Y           Z
 ---------------------------------------------------------------------
      1          6           0       -4.781422    0.395348   -0.567850
      2          6           0       -4.955045   -0.891101   -1.380793
      3          6           0       -3.620346   -1.335259   -1.992071
      4          6           0       -2.614378   -1.543894   -0.866184
      5          6           0       -2.393938   -0.230579   -0.071026
      6          6           0       -3.724731    0.235813    0.529888
      7          1           0       -3.734346   -2.255675   -2.574715
      8          1           0       -5.337542   -1.689576   -0.731510
      9          1           0       -5.692855   -0.744365   -2.175801
     10          1           0       -4.476449    1.206027   -1.242326
     11          1           0       -5.737380    0.689739   -0.122590
     12          1           0       -2.993859   -2.306736   -0.179411
     13          1           0       -2.076715    0.530386   -0.795568
     14          1           0       -4.066345   -0.490386    1.275109
     15          1           0       -3.553623    1.191517    1.036645
     16          1           0       -3.273529   -0.546124   -2.672921
     17          7           0       -1.286198   -2.020037   -1.305404
     18          6           0       -0.601278   -1.341054   -2.263477
     19          6           0       -0.588118   -2.801250   -0.437966
     20          6           0        0.755697   -1.383822   -2.354240
     21          1           0       -1.195975   -0.732361   -2.933435
     22          6           0        0.769998   -2.874540   -0.449818
     23          1           0       -1.178724   -3.308345    0.317372
     24          6           0        1.509470   -2.060584   -1.348920
     25          1           0        1.244794   -0.819464   -3.136479
     26          1           0        1.256466   -3.455365    0.320878
     27          7           0        2.829327   -1.940336   -1.258005
     28          6           0        3.553858   -2.359581   -0.047912
     29          1           0        3.448683   -3.436182    0.111743
     30          1           0        3.141608   -1.802617    0.806592
     31          6           0        3.553192   -0.881436   -1.973387
     32          1           0        3.805445   -1.218191   -2.986385
     33          1           0        2.917883    0.007010   -2.024459
     34          7           0       -1.281492   -0.322025    0.861197
     35         16           0       -1.342295   -1.173093    2.249227
     36          8           0       -2.534773   -2.026264    2.219746
     37          8           0       -0.046292   -1.825239    2.456836
     38          6           0       -0.624543    2.696978    0.056350
     39          6           0       -0.150246    2.228984   -1.179229
     40          6           0       -0.938575    2.321398   -2.324497
     41          6           0       -2.218182    2.874727   -2.269206
     42          6           0       -2.703016    3.336830   -1.049074
     43          6           0       -1.908186    3.248644    0.094224
     44          1           0        0.816471    1.739763   -1.213629
     45          1           0       -0.543734    1.964684   -3.273606
     46          1           0       -2.826506    2.950686   -3.166308
     47          1           0       -3.696508    3.771984   -0.985335
     48          1           0       -2.294415    3.624656    1.039532
     49          8           0        0.686917    1.556739    1.907328
     50          1           0       -0.294785   -0.070834    0.554409
     51          6           0        1.821794    0.829866    1.263054
     52          8           0        1.414088    0.223321    0.166157
     53          8           0        2.212169   -0.054620    2.297766
     54          1           0        1.516004   -0.736190    2.326479
     55          6           0        3.026792    1.799896    1.135120
     56          1           0        2.989329    2.517254    1.964972
     57          1           0        3.918428    1.187545    1.318816
     58          6           0        0.221428    2.746158    1.332150
     59          1           0       -0.404090    3.213775    2.103532
     60          1           0        1.056862    3.440697    1.159396
     61          6           0       -1.522121    0.035418    3.540437
     62          1           0       -0.660851    0.703366    3.451075
     63          1           0       -2.460840    0.568263    3.379078
     64          1           0       -1.533553   -0.495274    4.493872
     65          6           0        3.202218    2.528296   -0.194330
     66          1           0        3.160416    1.796675   -1.008617
     67          1           0        2.376929    3.222765   -0.383344
     68          6           0        4.523100    3.294062   -0.248893
     69          1           0        4.653783    3.813425   -1.203262
     70          1           0        4.574064    4.042710    0.550177
     71          1           0        5.374379    2.615393   -0.114231
     72          6           0        4.989327   -1.944673   -0.351065
     73          1           0        5.578506   -1.824426    0.559861
     74          1           0        5.474773   -2.695002   -0.984684
     75          6           0        4.796705   -0.631904   -1.114491
     76          1           0        4.576340    0.168623   -0.404010
     77          1           0        5.663097   -0.341512   -1.712490
 ---------------------------------------------------------------------

 SCF Done:  E(RM062X) =  -1991.35879358     A.U. after   14 cycles

 The electronic state is 1-A.
 Alpha  occ. eigenvalues --  -90.14110 -19.61725 -19.61704 -19.58738 -19.56726
 Alpha  occ. eigenvalues --  -19.51347 -14.85147 -14.80452 -14.75602 -10.63406
 Alpha  occ. eigenvalues --  -10.62778 -10.62301 -10.62136 -10.60690 -10.59278
 Alpha  occ. eigenvalues --  -10.58572 -10.57972 -10.57911 -10.57117 -10.56883
 Alpha  occ. eigenvalues --  -10.56670 -10.55632 -10.55583 -10.55139 -10.54919
 Alpha  occ. eigenvalues --  -10.54813 -10.54750 -10.54695 -10.54547 -10.54374
 Alpha  occ. eigenvalues --  -10.54297 -10.54267 -10.53098 -10.51609 -10.51511
 Alpha  occ. eigenvalues --  -10.49754  -8.45088  -6.37304  -6.37282  -6.37125
 Alpha  occ. eigenvalues --   -1.21938  -1.13621  -1.13499  -1.10192  -1.09350
 Alpha  occ. eigenvalues --   -1.05903  -1.01658  -0.99371  -0.95712  -0.94973
 Alpha  occ. eigenvalues --   -0.93472  -0.90274  -0.88750  -0.85884  -0.85821
 Alpha  occ. eigenvalues --   -0.84812  -0.84679  -0.84275  -0.83044  -0.82650
 Alpha  occ. eigenvalues --   -0.76653  -0.76325  -0.75833  -0.74392  -0.72746
 Alpha  occ. eigenvalues --   -0.71606  -0.68328  -0.68259  -0.67933  -0.67174
 Alpha  occ. eigenvalues --   -0.66760  -0.65214  -0.64871  -0.63520  -0.60576
 Alpha  occ. eigenvalues --   -0.60403  -0.59794  -0.58925  -0.57814  -0.57573
 Alpha  occ. eigenvalues --   -0.57152  -0.56429  -0.55747  -0.55164  -0.54179
 Alpha  occ. eigenvalues --   -0.53503  -0.52644  -0.52420  -0.52388  -0.51898
 Alpha  occ. eigenvalues --   -0.51538  -0.51055  -0.50872  -0.49857  -0.49587
 Alpha  occ. eigenvalues --   -0.49158  -0.48816  -0.48203  -0.48118  -0.48059
 Alpha  occ. eigenvalues --   -0.47644  -0.47444  -0.46899  -0.46458  -0.46097
 Alpha  occ. eigenvalues --   -0.44898  -0.44707  -0.44115  -0.43881  -0.43253
 Alpha  occ. eigenvalues --   -0.42476  -0.42102  -0.41467  -0.41381  -0.41154
 Alpha  occ. eigenvalues --   -0.40887  -0.40460  -0.40006  -0.39836  -0.39399
 Alpha  occ. eigenvalues --   -0.39257  -0.39053  -0.38456  -0.37913  -0.37583
 Alpha  occ. eigenvalues --   -0.37377  -0.36731  -0.36574  -0.35703  -0.34887
 Alpha  occ. eigenvalues --   -0.34371  -0.33920  -0.31701  -0.31034  -0.29752
 Alpha  occ. eigenvalues --   -0.28886  -0.28589  -0.27614  -0.24944  -0.24485
 Alpha virt. eigenvalues --   -0.01483   0.00438   0.03578   0.03785   0.10160
 Alpha virt. eigenvalues --    0.11035   0.11638   0.12141   0.13202   0.13543
 Alpha virt. eigenvalues --    0.14198   0.14654   0.14777   0.15273   0.15600

 Mulliken charges:
               1
     1  C   -0.306171
     2  C   -0.306990
     3  C   -0.309714
     4  C   -0.059666
     5  C    0.057166
     6  C   -0.311843
     7  H    0.173800
     8  H    0.162766
     9  H    0.165298
    10  H    0.150967
    11  H    0.163078
    12  H    0.208652
    13  H    0.172721
    14  H    0.193120
    15  H    0.163523
    16  H    0.153983
    17  N   -0.431113
    18  C    0.068407
    19  C    0.063718
    20  C   -0.203300
    21  H    0.206767
    22  C   -0.208888
    23  H    0.245694
    24  C    0.447600
    25  H    0.191441
    26  H    0.211674
    27  N   -0.527271
    28  C   -0.172990
    29  H    0.169817
    30  H    0.232773
    31  C   -0.154334
    32  H    0.167097
    33  H    0.202847
    34  N   -0.816805
    35  S    1.253902
    36  O   -0.612253
    37  O   -0.608158
    38  C    0.087652
    39  C   -0.181022
    40  C   -0.189285
    41  C   -0.170772
    42  C   -0.163671
    43  C   -0.212195
    44  H    0.207033
    45  H    0.140861
    46  H    0.154785
    47  H    0.158515
    48  H    0.152459
    49  O   -0.548892
    50  H    0.449384
    51  C    0.726659
    52  O   -0.723721
    53  O   -0.718135
    54  H    0.445531
    55  C   -0.338307
    56  H    0.149665
    57  H    0.150200
    58  C   -0.093076
    59  H    0.140843
    60  H    0.147207
    61  C   -0.662992
    62  H    0.272090
    63  H    0.196270
    64  H    0.217411
    65  C   -0.294765
    66  H    0.139545
    67  H    0.146858
    68  C   -0.474468
    69  H    0.149267
    70  H    0.155430
    71  H    0.143825
    72  C   -0.331784
    73  H    0.187500
    74  H    0.163287
    75  C   -0.343639
    76  H    0.195707
    77  H    0.171425
 Sum of Mulliken charges =  -0.00000

 Dipole moment (field-independent basis, Debye):
    X=             -2.3470    Y=             -1.8438    Z=             -6.4317  Tot=              7.0905
 Quadrupole moment (field-independent basis, Debye-Ang):
   XX=           -205.2873   YY=           -223.1913   ZZ=           -219.7454
   XY=            -12.1764   XZ=             -5.3877   YZ=             10.0153

 Normal termination of Gaussian 16 at Thu Feb  7 16:00:10 2019.
