 Gaussian 16, Revision A.03,
 Gaussian 16:  ES64L-G16RevA.03 25-Dec-2016

 ------------------------------------------
 #p M062X/6-31G* em=gd3 force int=ultrafine
 ------------------------------------------

 -----
 Title
 -----
 Symbolic Z-matrix:
 Charge =  0 Multiplicity = 1

                         Standard orientation:
 ---------------------------------------------------------------------
 Center     Atomic      Atomic             Coordinates (Angstroms)
 Number     Number       Type             X           Y           Z
 ---------------------------------------------------------------------
      1          6           0       -4.868795    0.067657   -0.425302
      2          6           0       -4.906496   -1.217137   -1.258389
      3          6           0       -3.525380   -1.525416   -1.849069
      4          6           0       -2.519656   -1.646708   -0.708876
      5          6           0       -2.425099   -0.322649    0.101683
      6          6           0       -3.812773   -0.009051    0.681515
      7          1           0       -3.544590   -2.446496   -2.442929
      8          1           0       -5.223493   -2.056868   -0.626061
      9          1           0       -5.640187   -1.130631   -2.066602
     10          1           0       -4.628234    0.912973   -1.085366
     11          1           0       -5.857285    0.265917    0.002678
     12          1           0       -2.831217   -2.448204   -0.033828
     13          1           0       -2.213668    0.458369   -0.643746
     14          1           0       -4.080722   -0.780595    1.414587
     15          1           0       -3.745118    0.949052    1.210986
     16          1           0       -3.247862   -0.698583   -2.517429
     17          7           0       -1.153604   -2.009813   -1.152014
     18          6           0       -0.543095   -1.323988   -2.145415
     19          6           0       -0.397681   -2.763241   -0.318958
     20          6           0        0.810318   -1.350749   -2.323585
     21          1           0       -1.187526   -0.728805   -2.779506
     22          6           0        0.961348   -2.835556   -0.431025
     23          1           0       -0.932200   -3.263111    0.481672
     24          6           0        1.632813   -2.046416   -1.394861
     25          1           0        1.240657   -0.785782   -3.139938
     26          1           0        1.499151   -3.412219    0.308390
     27          7           0        2.969015   -1.948020   -1.413180
     28          6           0        3.768478   -2.445377   -0.286724
     29          1           0        3.715568   -3.536416   -0.225658
     30          1           0        3.378129   -2.015289    0.646382
     31          6           0        3.660359   -0.867018   -2.131745
     32          1           0        3.918556   -1.192693   -3.146900
     33          1           0        3.015788    0.014566   -2.180146
     34          7           0       -1.300931   -0.278845    1.014323
     35         16           0       -1.261800   -1.221807    2.280338
     36          8           0       -2.251354   -2.322151    2.248315
     37          8           0        0.137960   -1.668285    2.520427
     38          6           0       -1.137368    2.856600   -0.172975
     39          6           0       -0.406455    2.189815   -1.161951
     40          6           0       -0.929794    2.064504   -2.447099
     41          6           0       -2.196007    2.564410   -2.751940
     42          6           0       -2.936086    3.206308   -1.761098
     43          6           0       -2.403458    3.353202   -0.482410
     44          1           0        0.547259    1.732605   -0.904202
     45          1           0       -0.346094    1.566052   -3.217814
     46          1           0       -2.604086    2.456402   -3.752569
     47          1           0       -3.928013    3.590483   -1.980693
     48          1           0       -2.982655    3.849679    0.293288
     49          8           0        0.216942    1.931449    1.617276
     50          1           0       -0.280385    1.102851    1.354068
     51          6           0        2.436946    0.656710    1.230227
     52          8           0        2.127182    0.214653    0.136934
     53          8           0        2.197505    0.032261    2.371097
     54          1           0        1.504865   -0.675299    2.252204
     55          6           0        3.192404    1.950610    1.423836
     56          1           0        2.718649    2.474618    2.258882
     57          1           0        4.215499    1.703710    1.742195
     58          6           0       -0.571265    3.016919    1.222989
     59          1           0       -1.402072    3.199442    1.924957
     60          1           0        0.071574    3.908130    1.256535
     61          6           0       -1.644727   -0.200681    3.700331
     62          1           0       -0.946688    0.639790    3.686687
     63          1           0       -2.673547    0.150527    3.600078
     64          1           0       -1.524192   -0.795219    4.606961
     65          6           0        3.203131    2.812634    0.168274
     66          1           0        3.627890    2.241294   -0.666133
     67          1           0        2.165822    3.030422   -0.109413
     68          6           0        3.977212    4.112526    0.364077
     69          1           0        3.982840    4.713782   -0.549706
     70          1           0        3.530443    4.716977    1.160412
     71          1           0        5.018170    3.915119    0.642810
     72          6           0        5.173903   -1.935453   -0.593421
     73          1           0        5.778099   -1.839696    0.310932
     74          1           0        5.683413   -2.621723   -1.277630
     75          6           0        4.902844   -0.594323   -1.279483
     76          1           0        4.650956    0.159987   -0.528455
     77          1           0        5.744322   -0.231654   -1.873334
 ---------------------------------------------------------------------

 SCF Done:  E(RM062X) =  -1991.38941341     A.U. after   15 cycles

 The electronic state is 1-A.
 Alpha  occ. eigenvalues --  -90.10365 -19.63376 -19.60091 -19.59269 -19.58583
 Alpha  occ. eigenvalues --  -19.58353 -14.84806 -14.80511 -14.69397 -10.65461
 Alpha  occ. eigenvalues --  -10.63233 -10.62398 -10.61510 -10.59143 -10.59083
 Alpha  occ. eigenvalues --  -10.59039 -10.57821 -10.57422 -10.56829 -10.56651
 Alpha  occ. eigenvalues --  -10.56050 -10.55757 -10.55510 -10.54970 -10.54917
 Alpha  occ. eigenvalues --  -10.54863 -10.54585 -10.54545 -10.54495 -10.53766
 Alpha  occ. eigenvalues --  -10.53728 -10.53559 -10.53155 -10.53039 -10.52625
 Alpha  occ. eigenvalues --  -10.52576  -8.41330  -6.33567  -6.33475  -6.33394
 Alpha  occ. eigenvalues --   -1.19123  -1.17888  -1.12940  -1.10307  -1.09851
 Alpha  occ. eigenvalues --   -1.09148  -1.06155  -0.97542  -0.95257  -0.94806
 Alpha  occ. eigenvalues --   -0.92187  -0.89854  -0.88586  -0.88051  -0.85016
 Alpha  occ. eigenvalues --   -0.84952  -0.83649  -0.83504  -0.83301  -0.80193
 Alpha  occ. eigenvalues --   -0.79133  -0.76355  -0.75659  -0.74681  -0.70941
 Alpha  occ. eigenvalues --   -0.70191  -0.69080  -0.68722  -0.68361  -0.68004
 Alpha  occ. eigenvalues --   -0.65792  -0.64724  -0.63945  -0.63426  -0.61628
 Alpha  occ. eigenvalues --   -0.60270  -0.59395  -0.58978  -0.58357  -0.56169
 Alpha  occ. eigenvalues --   -0.55452  -0.55161  -0.55062  -0.54075  -0.53680
 Alpha  occ. eigenvalues --   -0.53439  -0.53075  -0.52391  -0.51965  -0.51722
 Alpha  occ. eigenvalues --   -0.51143  -0.50995  -0.50610  -0.50175  -0.49829
 Alpha  occ. eigenvalues --   -0.49603  -0.49480  -0.48834  -0.48353  -0.48000
 Alpha  occ. eigenvalues --   -0.47779  -0.47170  -0.46979  -0.46944  -0.45936
 Alpha  occ. eigenvalues --   -0.45830  -0.45244  -0.43954  -0.43650  -0.43422
 Alpha  occ. eigenvalues --   -0.42762  -0.42467  -0.42246  -0.41925  -0.41898
 Alpha  occ. eigenvalues --   -0.41156  -0.40848  -0.40571  -0.39913  -0.39526
 Alpha  occ. eigenvalues --   -0.39366  -0.39201  -0.38761  -0.38379  -0.37850
 Alpha  occ. eigenvalues --   -0.37330  -0.36234  -0.35880  -0.35358  -0.35114
 Alpha  occ. eigenvalues --   -0.34395  -0.33121  -0.32085  -0.31715  -0.31501
 Alpha  occ. eigenvalues --   -0.29849  -0.28888  -0.28319  -0.27483  -0.25413
 Alpha virt. eigenvalues --   -0.01022   0.00649   0.03304   0.03795   0.09084
 Alpha virt. eigenvalues --    0.10146   0.10920   0.11791   0.12997   0.13474
 Alpha virt. eigenvalues --    0.13854   0.14239   0.15124   0.15499   0.15756

 Mulliken charges:
               1
     1  C   -0.303931
     2  C   -0.304187
     3  C   -0.309710
     4  C   -0.073363
     5  C    0.062342
     6  C   -0.305187
     7  H    0.165928
     8  H    0.160921
     9  H    0.159140
    10  H    0.146385
    11  H    0.156660
    12  H    0.212941
    13  H    0.141487
    14  H    0.179521
    15  H    0.149249
    16  H    0.150814
    17  N   -0.424449
    18  C    0.100151
    19  C    0.083987
    20  C   -0.227866
    21  H    0.205167
    22  C   -0.227085
    23  H    0.264298
    24  C    0.428351
    25  H    0.188213
    26  H    0.206928
    27  N   -0.528998
    28  C   -0.157489
    29  H    0.178395
    30  H    0.199237
    31  C   -0.147128
    32  H    0.169548
    33  H    0.195994
    34  N   -0.755207
    35  S    1.249445
    36  O   -0.646967
    37  O   -0.670596
    38  C    0.048708
    39  C   -0.177160
    40  C   -0.187043
    41  C   -0.169954
    42  C   -0.162150
    43  C   -0.197828
    44  H    0.202951
    45  H    0.139327
    46  H    0.156408
    47  H    0.161823
    48  H    0.156677
    49  O   -0.711723
    50  H    0.481187
    51  C    0.646631
    52  O   -0.523264
    53  O   -0.644898
    54  H    0.485664
    55  C   -0.367551
    56  H    0.200450
    57  H    0.164012
    58  C   -0.067580
    59  H    0.128479
    60  H    0.158519
    61  C   -0.656400
    62  H    0.219123
    63  H    0.188073
    64  H    0.207957
    65  C   -0.287113
    66  H    0.143471
    67  H    0.166561
    68  C   -0.480390
    69  H    0.158434
    70  H    0.158555
    71  H    0.150102
    72  C   -0.337351
    73  H    0.184092
    74  H    0.170049
    75  C   -0.335698
    76  H    0.182633
    77  H    0.173282
 Sum of Mulliken charges =  -0.00000

 Dipole moment (field-independent basis, Debye):
    X=              1.5545    Y=             -0.3951    Z=             -6.5147  Tot=              6.7092
 Quadrupole moment (field-independent basis, Debye-Ang):
   XX=           -198.0686   YY=           -223.2435   ZZ=           -221.8378
   XY=            -12.0381   XZ=             -1.2300   YZ=             12.3715

 Normal termination of Gaussian 16 at Fri Feb  8 00:36:53 2019.
