 Gaussian 16, Revision A.03,
 Gaussian 16:  ES64L-G16RevA.03 25-Dec-2016

 ------------------------------------------
 #p M062X/6-31G* em=gd3 force int=ultrafine
 ------------------------------------------

 -----
 Title
 -----
 Symbolic Z-matrix:
 Charge =  0 Multiplicity = 1

                         Standard orientation:
 ---------------------------------------------------------------------
 Center     Atomic      Atomic             Coordinates (Angstroms)
 Number     Number       Type             X           Y           Z
 ---------------------------------------------------------------------
      1          6           0       -4.829827    0.468901   -0.529016
      2          6           0       -5.025939   -0.846327   -1.289249
      3          6           0       -3.702011   -1.330588   -1.892502
      4          6           0       -2.685076   -1.506591   -0.770257
      5          6           0       -2.449545   -0.169266   -0.024706
      6          6           0       -3.768885    0.336320    0.568535
      7          1           0       -3.830775   -2.272067   -2.437009
      8          1           0       -5.413743   -1.613420   -0.606146
      9          1           0       -5.767780   -0.722117   -2.084367
     10          1           0       -4.517312    1.248527   -1.236562
     11          1           0       -5.779084    0.793822   -0.090860
     12          1           0       -3.060624   -2.243843   -0.053682
     13          1           0       -2.129246    0.562752   -0.777068
     14          1           0       -4.114691   -0.355904    1.343231
     15          1           0       -3.580723    1.307934    1.038179
     16          1           0       -3.352501   -0.573615   -2.607493
     17          7           0       -1.366490   -2.005855   -1.212506
     18          6           0       -0.686479   -1.356567   -2.195370
     19          6           0       -0.667957   -2.788015   -0.347214
     20          6           0        0.666284   -1.433633   -2.315824
     21          1           0       -1.280882   -0.741249   -2.859214
     22          6           0        0.686666   -2.901857   -0.394141
     23          1           0       -1.251712   -3.263575    0.433431
     24          6           0        1.427291   -2.126718   -1.327175
     25          1           0        1.152127   -0.888573   -3.113958
     26          1           0        1.175893   -3.484126    0.373644
     27          7           0        2.752171   -2.055807   -1.279744
     28          6           0        3.494839   -2.523549   -0.099331
     29          1           0        3.362910   -3.600385    0.038177
     30          1           0        3.121211   -1.973565    0.776704
     31          6           0        3.493896   -1.004193   -1.992598
     32          1           0        3.738386   -1.340830   -3.007758
     33          1           0        2.879389   -0.100776   -2.026130
     34          7           0       -1.331417   -0.233175    0.904489
     35         16           0       -1.353030   -1.054288    2.318353
     36          8           0       -2.585164   -1.846678    2.354527
     37          8           0       -0.079894   -1.759610    2.476619
     38          6           0       -0.539896    2.648729   -0.074764
     39          6           0       -0.066446    2.095560   -1.274675
     40          6           0       -0.834204    2.158775   -2.436704
     41          6           0       -2.089508    2.766668   -2.434180
     42          6           0       -2.571265    3.317231   -1.249138
     43          6           0       -1.799218    3.256839   -0.088771
     44          1           0        0.881080    1.566002   -1.259069
     45          1           0       -0.440735    1.734082   -3.358319
     46          1           0       -2.680506    2.818217   -3.344492
     47          1           0       -3.545195    3.798481   -1.226921
     48          1           0       -2.184724    3.696961    0.828867
     49          8           0        0.742952    1.519634    1.798558
     50          1           0       -0.368421    0.003509    0.580295
     51          6           0        1.934423    0.804570    1.206478
     52          8           0        1.589570    0.191497    0.101377
     53          8           0        2.277599   -0.067296    2.268604
     54          1           0        1.576539   -0.743631    2.271644
     55          6           0        3.111399    1.809230    1.140688
     56          1           0        3.005737    2.525413    1.965727
     57          1           0        4.019400    1.235523    1.364870
     58          6           0        0.277369    2.706455    1.220559
     59          1           0       -0.374169    3.163481    1.977763
     60          1           0        1.106308    3.414734    1.070699
     61          6           0       -1.411940    0.190414    3.585469
     62          1           0       -0.522026    0.809780    3.441011
     63          1           0       -2.330109    0.766008    3.456746
     64          1           0       -1.402902   -0.320894    4.549568
     65          6           0        3.310843    2.547321   -0.180651
     66          1           0        3.514728    1.819931   -0.975539
     67          1           0        2.396500    3.065306   -0.489378
     68          6           0        4.453253    3.557991   -0.087834
     69          1           0        4.624585    4.071261   -1.039056
     70          1           0        4.233828    4.319648    0.668917
     71          1           0        5.388176    3.067426    0.206072
     72          6           0        4.931867   -2.134287   -0.425371
     73          1           0        5.547900   -2.061903    0.472639
     74          1           0        5.381609   -2.870994   -1.100455
     75          6           0        4.741660   -0.791027   -1.131768
     76          1           0        4.514663   -0.025641   -0.384686
     77          1           0        5.605481   -0.473923   -1.719773
 ---------------------------------------------------------------------

 SCF Done:  E(RM062X) =  -1991.35729662     A.U. after   14 cycles

 The electronic state is 1-A.
 Alpha  occ. eigenvalues --  -90.14498 -19.62073 -19.62011 -19.58498 -19.56642
 Alpha  occ. eigenvalues --  -19.50826 -14.85275 -14.80339 -14.76429 -10.63375
 Alpha  occ. eigenvalues --  -10.62779 -10.62261 -10.62035 -10.60925 -10.59624
 Alpha  occ. eigenvalues --  -10.58208 -10.57966 -10.57897 -10.57178 -10.56881
 Alpha  occ. eigenvalues --  -10.56811 -10.55808 -10.55780 -10.54981 -10.54955
 Alpha  occ. eigenvalues --  -10.54889 -10.54783 -10.54632 -10.54580 -10.54499
 Alpha  occ. eigenvalues --  -10.54426 -10.54351 -10.52978 -10.51289 -10.51247
 Alpha  occ. eigenvalues --  -10.49501  -8.45473  -6.37695  -6.37663  -6.37507
 Alpha  occ. eigenvalues --   -1.22302  -1.13633  -1.13223  -1.10552  -1.09239
 Alpha  occ. eigenvalues --   -1.05739  -1.02120  -0.99180  -0.95850  -0.95009
 Alpha  occ. eigenvalues --   -0.93559  -0.90320  -0.88748  -0.86173  -0.85537
 Alpha  occ. eigenvalues --   -0.84841  -0.84775  -0.84077  -0.83071  -0.82891
 Alpha  occ. eigenvalues --   -0.76699  -0.76070  -0.75781  -0.74237  -0.73017
 Alpha  occ. eigenvalues --   -0.71762  -0.68295  -0.68151  -0.67908  -0.67373
 Alpha  occ. eigenvalues --   -0.66634  -0.65338  -0.64827  -0.63522  -0.60507
 Alpha  occ. eigenvalues --   -0.60372  -0.59681  -0.59420  -0.57740  -0.57706
 Alpha  occ. eigenvalues --   -0.57278  -0.56482  -0.55823  -0.55141  -0.54257
 Alpha  occ. eigenvalues --   -0.53609  -0.52808  -0.52593  -0.52490  -0.51948
 Alpha  occ. eigenvalues --   -0.51591  -0.50927  -0.50489  -0.49927  -0.49417
 Alpha  occ. eigenvalues --   -0.49127  -0.48950  -0.48227  -0.48122  -0.47868
 Alpha  occ. eigenvalues --   -0.47770  -0.47539  -0.47032  -0.46308  -0.46042
 Alpha  occ. eigenvalues --   -0.45007  -0.44740  -0.44246  -0.43814  -0.43278
 Alpha  occ. eigenvalues --   -0.42591  -0.42185  -0.41254  -0.41184  -0.40989
 Alpha  occ. eigenvalues --   -0.40835  -0.40554  -0.39977  -0.39771  -0.39250
 Alpha  occ. eigenvalues --   -0.39203  -0.39096  -0.38396  -0.38157  -0.37751
 Alpha  occ. eigenvalues --   -0.37320  -0.36672  -0.36457  -0.35928  -0.34946
 Alpha  occ. eigenvalues --   -0.34422  -0.34100  -0.31774  -0.31221  -0.29798
 Alpha  occ. eigenvalues --   -0.28870  -0.28595  -0.27720  -0.24378  -0.24100
 Alpha virt. eigenvalues --   -0.01468   0.00381   0.03489   0.03721   0.10117
 Alpha virt. eigenvalues --    0.10783   0.11510   0.12353   0.13150   0.13354
 Alpha virt. eigenvalues --    0.14204   0.14370   0.14738   0.15300   0.15584

 Mulliken charges:
               1
     1  C   -0.306348
     2  C   -0.307432
     3  C   -0.309655
     4  C   -0.059313
     5  C    0.055487
     6  C   -0.310160
     7  H    0.174733
     8  H    0.163063
     9  H    0.166242
    10  H    0.150700
    11  H    0.164407
    12  H    0.207911
    13  H    0.174767
    14  H    0.194922
    15  H    0.163459
    16  H    0.155357
    17  N   -0.433545
    18  C    0.069743
    19  C    0.066431
    20  C   -0.202832
    21  H    0.205607
    22  C   -0.211081
    23  H    0.243882
    24  C    0.447457
    25  H    0.192477
    26  H    0.211122
    27  N   -0.523685
    28  C   -0.169043
    29  H    0.168858
    30  H    0.226256
    31  C   -0.152127
    32  H    0.163336
    33  H    0.206613
    34  N   -0.806859
    35  S    1.248886
    36  O   -0.607350
    37  O   -0.600680
    38  C    0.074836
    39  C   -0.190192
    40  C   -0.190876
    41  C   -0.172472
    42  C   -0.164415
    43  C   -0.210218
    44  H    0.220250
    45  H    0.140211
    46  H    0.154968
    47  H    0.158504
    48  H    0.152243
    49  O   -0.560072
    50  H    0.443157
    51  C    0.720012
    52  O   -0.717100
    53  O   -0.715148
    54  H    0.439284
    55  C   -0.338164
    56  H    0.146863
    57  H    0.150439
    58  C   -0.086244
    59  H    0.136716
    60  H    0.149125
    61  C   -0.664181
    62  H    0.276759
    63  H    0.197570
    64  H    0.218940
    65  C   -0.289156
    66  H    0.134373
    67  H    0.144513
    68  C   -0.473621
    69  H    0.148294
    70  H    0.152366
    71  H    0.147057
    72  C   -0.332835
    73  H    0.186363
    74  H    0.161907
    75  C   -0.341643
    76  H    0.200406
    77  H    0.169571
 Sum of Mulliken charges =  -0.00000

 Dipole moment (field-independent basis, Debye):
    X=             -3.0323    Y=             -2.1571    Z=             -6.1165  Tot=              7.1596
 Quadrupole moment (field-independent basis, Debye-Ang):
   XX=           -206.8934   YY=           -221.7697   ZZ=           -220.0390
   XY=            -12.7951   XZ=             -4.6768   YZ=             10.2773

 Normal termination of Gaussian 16 at Thu Feb  7 12:40:16 2019.
