 Gaussian 16, Revision A.03,
 Gaussian 16:  ES64L-G16RevA.03 25-Dec-2016

 ------------------------------------------
 #p M062X/6-31G* em=gd3 force int=ultrafine
 ------------------------------------------

 -----
 Title
 -----
 Symbolic Z-matrix:
 Charge =  0 Multiplicity = 1

                         Standard orientation:
 ---------------------------------------------------------------------
 Center     Atomic      Atomic             Coordinates (Angstroms)
 Number     Number       Type             X           Y           Z
 ---------------------------------------------------------------------
      1          6           0       -4.807659    0.462981   -0.519802
      2          6           0       -5.012312   -0.846494   -1.287614
      3          6           0       -3.693864   -1.329607   -1.904006
      4          6           0       -2.671138   -1.516009   -0.789064
      5          6           0       -2.425154   -0.184816   -0.034601
      6          6           0       -3.739682    0.320649    0.569659
      7          1           0       -3.829165   -2.267171   -2.453696
      8          1           0       -5.396351   -1.617509   -0.606782
      9          1           0       -5.760067   -0.715232   -2.076041
     10          1           0       -4.498258    1.246358   -1.224356
     11          1           0       -5.753009    0.787363   -0.072836
     12          1           0       -3.045132   -2.256697   -0.075453
     13          1           0       -2.106275    0.551482   -0.783427
     14          1           0       -4.082746   -0.375939    1.341689
     15          1           0       -3.546154    1.288649    1.044353
     16          1           0       -3.347274   -0.568919   -2.616506
     17          7           0       -1.355337   -2.015466   -1.239845
     18          6           0       -0.674857   -1.352694   -2.213329
     19          6           0       -0.656012   -2.802257   -0.379282
     20          6           0        0.679071   -1.418754   -2.326808
     21          1           0       -1.270245   -0.734829   -2.874112
     22          6           0        0.699716   -2.906292   -0.419723
     23          1           0       -1.240584   -3.288413    0.394278
     24          6           0        1.439008   -2.113768   -1.338626
     25          1           0        1.165586   -0.862644   -3.116817
     26          1           0        1.189015   -3.492278    0.345200
     27          7           0        2.762669   -2.027418   -1.279729
     28          6           0        3.504096   -2.494167   -0.098432
     29          1           0        3.376931   -3.571842    0.036421
     30          1           0        3.125526   -1.948564    0.778370
     31          6           0        3.495511   -0.962976   -1.981586
     32          1           0        3.735003   -1.283435   -3.003047
     33          1           0        2.874577   -0.063270   -2.000190
     34          7           0       -1.301792   -0.264033    0.887032
     35         16           0       -1.336178   -1.089648    2.296032
     36          8           0       -2.560502   -1.895321    2.318287
     37          8           0       -0.058352   -1.784689    2.466523
     38          6           0       -0.556745    2.662068   -0.042595
     39          6           0       -0.083548    2.131207   -1.252923
     40          6           0       -0.856973    2.202172   -2.410352
     41          6           0       -2.119457    2.795071   -2.393141
     42          6           0       -2.601961    3.322179   -1.198134
     43          6           0       -1.823031    3.255179   -0.042631
     44          1           0        0.868614    1.611215   -1.251777
     45          1           0       -0.462715    1.795734   -3.339707
     46          1           0       -2.715524    2.852576   -3.299771
     47          1           0       -3.581843    3.790500   -1.163819
     48          1           0       -2.208881    3.678614    0.882710
     49          8           0        0.734489    1.537852    1.831618
     50          1           0       -0.331950   -0.031047    0.562823
     51          6           0        1.900805    0.811979    1.223193
     52          8           0        1.529861    0.198066    0.123442
     53          8           0        2.260023   -0.062475    2.277655
     54          1           0        1.564099   -0.744090    2.286240
     55          6           0        3.089890    1.801548    1.132209
     56          1           0        3.009372    2.519014    1.959952
     57          1           0        3.993718    1.214846    1.340933
     58          6           0        0.268242    2.721894    1.247747
     59          1           0       -0.376796    3.184542    2.006616
     60          1           0        1.098551    3.426541    1.089567
     61          6           0       -1.423938    0.147640    3.569046
     62          1           0       -0.537822    0.775857    3.441621
     63          1           0       -2.344234    0.717025    3.427743
     64          1           0       -1.427125   -0.367864    4.530892
     65          6           0        3.279393    2.539062   -0.190686
     66          1           0        3.446947    1.810333   -0.992602
     67          1           0        2.373607    3.083420   -0.477449
     68          6           0        4.450384    3.518206   -0.119609
     69          1           0        4.612415    4.032360   -1.071954
     70          1           0        4.269029    4.280674    0.646330
     71          1           0        5.378582    3.000994    0.149213
     72          6           0        4.940116   -2.098998   -0.422114
     73          1           0        5.555574   -2.027062    0.476329
     74          1           0        5.392162   -2.832909   -1.098602
     75          6           0        4.748249   -0.754309   -1.126077
     76          1           0        4.530028    0.011755   -0.377285
     77          1           0        5.609834   -0.439001   -1.718273
 ---------------------------------------------------------------------

 SCF Done:  E(RM062X) =  -1991.35776910     A.U. after   14 cycles

 The electronic state is 1-A.
 Alpha  occ. eigenvalues --  -90.14358 -19.61946 -19.61900 -19.58580 -19.56643
 Alpha  occ. eigenvalues --  -19.50996 -14.85235 -14.80395 -14.76156 -10.63404
 Alpha  occ. eigenvalues --  -10.62787 -10.62253 -10.62106 -10.60840 -10.59514
 Alpha  occ. eigenvalues --  -10.58298 -10.57992 -10.57954 -10.57186 -10.56899
 Alpha  occ. eigenvalues --  -10.56758 -10.55727 -10.55696 -10.55053 -10.54887
 Alpha  occ. eigenvalues --  -10.54874 -10.54763 -10.54694 -10.54611 -10.54423
 Alpha  occ. eigenvalues --  -10.54421 -10.54348 -10.53022 -10.51374 -10.51336
 Alpha  occ. eigenvalues --  -10.49576  -8.45335  -6.37554  -6.37527  -6.37369
 Alpha  occ. eigenvalues --   -1.22171  -1.13617  -1.13368  -1.10424  -1.09299
 Alpha  occ. eigenvalues --   -1.05800  -1.01954  -0.99219  -0.95811  -0.95008
 Alpha  occ. eigenvalues --   -0.93539  -0.90323  -0.88760  -0.86050  -0.85637
 Alpha  occ. eigenvalues --   -0.84835  -0.84757  -0.84152  -0.83069  -0.82804
 Alpha  occ. eigenvalues --   -0.76692  -0.76153  -0.75810  -0.74297  -0.72915
 Alpha  occ. eigenvalues --   -0.71722  -0.68318  -0.68183  -0.67932  -0.67305
 Alpha  occ. eigenvalues --   -0.66696  -0.65283  -0.64853  -0.63532  -0.60521
 Alpha  occ. eigenvalues --   -0.60397  -0.59738  -0.59254  -0.57782  -0.57656
 Alpha  occ. eigenvalues --   -0.57240  -0.56464  -0.55814  -0.55156  -0.54230
 Alpha  occ. eigenvalues --   -0.53595  -0.52724  -0.52543  -0.52504  -0.51928
 Alpha  occ. eigenvalues --   -0.51571  -0.50965  -0.50588  -0.49912  -0.49467
 Alpha  occ. eigenvalues --   -0.49155  -0.48900  -0.48213  -0.48129  -0.47930
 Alpha  occ. eigenvalues --   -0.47732  -0.47509  -0.46974  -0.46366  -0.46083
 Alpha  occ. eigenvalues --   -0.44943  -0.44735  -0.44208  -0.43831  -0.43275
 Alpha  occ. eigenvalues --   -0.42572  -0.42172  -0.41325  -0.41236  -0.41036
 Alpha  occ. eigenvalues --   -0.40886  -0.40537  -0.39987  -0.39765  -0.39243
 Alpha  occ. eigenvalues --   -0.39225  -0.39099  -0.38411  -0.38073  -0.37676
 Alpha  occ. eigenvalues --   -0.37357  -0.36725  -0.36501  -0.35845  -0.34932
 Alpha  occ. eigenvalues --   -0.34402  -0.34046  -0.31703  -0.31196  -0.29791
 Alpha  occ. eigenvalues --   -0.28867  -0.28604  -0.27696  -0.24579  -0.24216
 Alpha virt. eigenvalues --   -0.01508   0.00380   0.03514   0.03725   0.10119
 Alpha virt. eigenvalues --    0.10872   0.11582   0.12292   0.13142   0.13420
 Alpha virt. eigenvalues --    0.14223   0.14443   0.14745   0.15248   0.15592

 Mulliken charges:
               1
     1  C   -0.306310
     2  C   -0.307314
     3  C   -0.309259
     4  C   -0.059992
     5  C    0.055670
     6  C   -0.310726
     7  H    0.174415
     8  H    0.163033
     9  H    0.165909
    10  H    0.150675
    11  H    0.163980
    12  H    0.208662
    13  H    0.173953
    14  H    0.194404
    15  H    0.163388
    16  H    0.154842
    17  N   -0.431879
    18  C    0.068166
    19  C    0.065319
    20  C   -0.201768
    21  H    0.205950
    22  C   -0.210175
    23  H    0.244309
    24  C    0.446551
    25  H    0.192372
    26  H    0.211308
    27  N   -0.524863
    28  C   -0.169611
    29  H    0.169411
    30  H    0.227128
    31  C   -0.153728
    32  H    0.164122
    33  H    0.207155
    34  N   -0.811473
    35  S    1.250745
    36  O   -0.609313
    37  O   -0.603348
    38  C    0.079459
    39  C   -0.187618
    40  C   -0.190418
    41  C   -0.172057
    42  C   -0.164037
    43  C   -0.211222
    44  H    0.216886
    45  H    0.140296
    46  H    0.154962
    47  H    0.158549
    48  H    0.152315
    49  O   -0.554893
    50  H    0.445998
    51  C    0.721590
    52  O   -0.719357
    53  O   -0.716974
    54  H    0.441716
    55  C   -0.338044
    56  H    0.147397
    57  H    0.150841
    58  C   -0.088386
    59  H    0.138258
    60  H    0.148505
    61  C   -0.663758
    62  H    0.276049
    63  H    0.196804
    64  H    0.218195
    65  C   -0.290364
    66  H    0.133687
    67  H    0.145375
    68  C   -0.473319
    69  H    0.148529
    70  H    0.153124
    71  H    0.146494
    72  C   -0.332334
    73  H    0.186584
    74  H    0.162457
    75  C   -0.342413
    76  H    0.199014
    77  H    0.170405
 Sum of Mulliken charges =  -0.00000

 Dipole moment (field-independent basis, Debye):
    X=             -2.8296    Y=             -2.0875    Z=             -6.2282  Tot=              7.1523
 Quadrupole moment (field-independent basis, Debye-Ang):
   XX=           -206.4187   YY=           -222.0558   ZZ=           -220.1750
   XY=            -12.6713   XZ=             -4.9196   YZ=             10.1921

 Normal termination of Gaussian 16 at Thu Feb  7 13:19:28 2019.
