 Gaussian 16, Revision A.03,
 Gaussian 16:  ES64L-G16RevA.03 25-Dec-2016

 ------------------------------------------
 #p M062X/6-31G* em=gd3 force int=ultrafine
 ------------------------------------------

 -----
 Title
 -----
 Symbolic Z-matrix:
 Charge =  0 Multiplicity = 1

                         Standard orientation:
 ---------------------------------------------------------------------
 Center     Atomic      Atomic             Coordinates (Angstroms)
 Number     Number       Type             X           Y           Z
 ---------------------------------------------------------------------
      1          6           0       -4.844676    0.397129   -0.508443
      2          6           0       -4.982108   -0.874854   -1.350208
      3          6           0       -3.626990   -1.284453   -1.939487
      4          6           0       -2.636055   -1.502736   -0.800422
      5          6           0       -2.457287   -0.213749    0.044256
      6          6           0       -3.815303    0.221100    0.612762
      7          1           0       -3.714084   -2.191926   -2.547262
      8          1           0       -5.367899   -1.691383   -0.725735
      9          1           0       -5.702848   -0.724423   -2.160502
     10          1           0       -4.525840    1.223233   -1.159140
     11          1           0       -5.816540    0.676327   -0.088148
     12          1           0       -3.004000   -2.300419   -0.147485
     13          1           0       -2.140813    0.568412   -0.660630
     14          1           0       -4.164231   -0.524416    1.336475
     15          1           0       -3.667898    1.168154    1.145127
     16          1           0       -3.282255   -0.472035   -2.593560
     17          7           0       -1.291521   -1.937276   -1.246432
     18          6           0       -0.630680   -1.253022   -2.211768
     19          6           0       -0.578699   -2.734979   -0.413738
     20          6           0        0.723676   -1.322742   -2.358387
     21          1           0       -1.235500   -0.618123   -2.846228
     22          6           0        0.778611   -2.848462   -0.491204
     23          1           0       -1.148370   -3.242211    0.357309
     24          6           0        1.502114   -2.060541   -1.421914
     25          1           0        1.191913   -0.748921   -3.147265
     26          1           0        1.277699   -3.456731    0.249987
     27          7           0        2.837534   -2.002471   -1.403443
     28          6           0        3.588477   -2.512926   -0.247460
     29          1           0        3.482381   -3.597808   -0.163467
     30          1           0        3.201117   -2.035190    0.663470
     31          6           0        3.579451   -0.930238   -2.089182
     32          1           0        3.848206   -1.249619   -3.103018
     33          1           0        2.965454   -0.027236   -2.132492
     34          7           0       -1.347761   -0.325263    0.972414
     35         16           0       -1.390107   -1.225513    2.306518
     36          8           0       -2.550338   -2.130168    2.281504
     37          8           0       -0.064409   -1.852150    2.487137
     38          6           0       -0.720898    2.765349   -0.065437
     39          6           0       -0.150812    2.120600   -1.172708
     40          6           0       -0.801080    2.148846   -2.404702
     41          6           0       -2.041250    2.776616   -2.540195
     42          6           0       -2.621631    3.392476   -1.434036
     43          6           0       -1.956894    3.388356   -0.210479
     44          1           0        0.778306    1.566379   -1.046077
     45          1           0       -0.341998    1.673760   -3.270131
     46          1           0       -2.549965    2.790426   -3.499397
     47          1           0       -3.589812    3.876345   -1.517708
     48          1           0       -2.404032    3.860521    0.661099
     49          8           0        0.306995    1.420376    1.627591
     50          1           0       -0.522715    0.555659    1.144715
     51          6           0        2.326921    0.601046    1.172783
     52          8           0        2.071385    0.153902    0.065349
     53          8           0        2.245153   -0.135886    2.288967
     54          1           0        1.532476   -0.805579    2.177380
     55          6           0        3.097135    1.884325    1.391111
     56          1           0        2.633648    2.458762    2.200232
     57          1           0        4.080389    1.565111    1.764074
     58          6           0       -0.056723    2.704505    1.296938
     59          1           0       -0.751166    3.142113    2.039024
     60          1           0        0.820553    3.384912    1.290199
     61          6           0       -1.536762   -0.065127    3.655635
     62          1           0       -0.712344    0.640960    3.512460
     63          1           0       -2.501429    0.439142    3.576971
     64          1           0       -1.450521   -0.607536    4.598189
     65          6           0        3.277766    2.725360    0.129861
     66          1           0        3.663608    2.086690   -0.673272
     67          1           0        2.308810    3.094740   -0.224453
     68          6           0        4.225231    3.900465    0.363575
     69          1           0        4.388362    4.474225   -0.553560
     70          1           0        3.826251    4.585166    1.119649
     71          1           0        5.200893    3.550074    0.718241
     72          6           0        5.019133   -2.070842   -0.535251
     73          1           0        5.619456   -2.014421    0.374794
     74          1           0        5.498869   -2.771825   -1.226313
     75          6           0        4.810016   -0.711239   -1.204488
     76          1           0        4.559956    0.033489   -0.443687
     77          1           0        5.675490   -0.361702   -1.770800
 ---------------------------------------------------------------------

 SCF Done:  E(RM062X) =  -1991.36307885     A.U. after   15 cycles

 The electronic state is 1-A.
 Alpha  occ. eigenvalues --  -90.12193 -19.62549 -19.60205 -19.60033 -19.58648
 Alpha  occ. eigenvalues --  -19.53994 -14.85191 -14.80576 -14.72186 -10.65249
 Alpha  occ. eigenvalues --  -10.63486 -10.62732 -10.62128 -10.60114 -10.58925
 Alpha  occ. eigenvalues --  -10.58811 -10.58038 -10.58028 -10.57151 -10.56149
 Alpha  occ. eigenvalues --  -10.55793 -10.55456 -10.55163 -10.55087 -10.54555
 Alpha  occ. eigenvalues --  -10.54482 -10.54412 -10.54395 -10.54114 -10.53730
 Alpha  occ. eigenvalues --  -10.53435 -10.53401 -10.53118 -10.52832 -10.52726
 Alpha  occ. eigenvalues --  -10.52389  -8.43187  -6.35412  -6.35341  -6.35252
 Alpha  occ. eigenvalues --   -1.19886  -1.17948  -1.13376  -1.09578  -1.08515
 Alpha  occ. eigenvalues --   -1.08068  -1.04432  -0.99183  -0.95344  -0.94577
 Alpha  occ. eigenvalues --   -0.92996  -0.90189  -0.88795  -0.87670  -0.84831
 Alpha  occ. eigenvalues --   -0.84681  -0.84142  -0.83799  -0.82852  -0.81266
 Alpha  occ. eigenvalues --   -0.78679  -0.76636  -0.75859  -0.72198  -0.71763
 Alpha  occ. eigenvalues --   -0.71044  -0.68768  -0.68583  -0.68422  -0.67423
 Alpha  occ. eigenvalues --   -0.65759  -0.64576  -0.64228  -0.63053  -0.62348
 Alpha  occ. eigenvalues --   -0.60452  -0.59969  -0.58447  -0.58135  -0.56719
 Alpha  occ. eigenvalues --   -0.56200  -0.55954  -0.54881  -0.54286  -0.53844
 Alpha  occ. eigenvalues --   -0.53398  -0.53196  -0.52857  -0.51834  -0.51598
 Alpha  occ. eigenvalues --   -0.51350  -0.50913  -0.50660  -0.50498  -0.50070
 Alpha  occ. eigenvalues --   -0.49784  -0.48981  -0.48475  -0.48424  -0.47380
 Alpha  occ. eigenvalues --   -0.47254  -0.47087  -0.46661  -0.46450  -0.45929
 Alpha  occ. eigenvalues --   -0.45852  -0.45087  -0.44556  -0.43609  -0.43339
 Alpha  occ. eigenvalues --   -0.42989  -0.42346  -0.42020  -0.41815  -0.41615
 Alpha  occ. eigenvalues --   -0.40995  -0.40798  -0.40253  -0.39996  -0.39564
 Alpha  occ. eigenvalues --   -0.39273  -0.39012  -0.38676  -0.38514  -0.37946
 Alpha  occ. eigenvalues --   -0.37280  -0.37179  -0.36663  -0.35929  -0.34806
 Alpha  occ. eigenvalues --   -0.34465  -0.33795  -0.33050  -0.30818  -0.29492
 Alpha  occ. eigenvalues --   -0.28946  -0.28715  -0.27816  -0.26145  -0.25228
 Alpha virt. eigenvalues --   -0.01417   0.00384   0.03703   0.04428   0.10172
 Alpha virt. eigenvalues --    0.10418   0.11348   0.11442   0.12511   0.13406
 Alpha virt. eigenvalues --    0.13800   0.14251   0.15173   0.15372   0.15531

 Mulliken charges:
               1
     1  C   -0.305960
     2  C   -0.305904
     3  C   -0.310969
     4  C   -0.066371
     5  C    0.074671
     6  C   -0.306643
     7  H    0.169979
     8  H    0.161924
     9  H    0.162654
    10  H    0.149934
    11  H    0.160564
    12  H    0.208839
    13  H    0.159693
    14  H    0.186489
    15  H    0.157970
    16  H    0.154407
    17  N   -0.428848
    18  C    0.093863
    19  C    0.094266
    20  C   -0.222654
    21  H    0.206841
    22  C   -0.227165
    23  H    0.252687
    24  C    0.429359
    25  H    0.191029
    26  H    0.208654
    27  N   -0.522135
    28  C   -0.160217
    29  H    0.176042
    30  H    0.201296
    31  C   -0.146740
    32  H    0.168767
    33  H    0.198376
    34  N   -0.819853
    35  S    1.248177
    36  O   -0.619798
    37  O   -0.638023
    38  C    0.057889
    39  C   -0.188953
    40  C   -0.189844
    41  C   -0.174791
    42  C   -0.161302
    43  C   -0.204373
    44  H    0.205783
    45  H    0.135092
    46  H    0.153100
    47  H    0.157789
    48  H    0.155140
    49  O   -0.720841
    50  H    0.474812
    51  C    0.686344
    52  O   -0.540466
    53  O   -0.650540
    54  H    0.470523
    55  C   -0.366388
    56  H    0.194832
    57  H    0.161745
    58  C   -0.036094
    59  H    0.097960
    60  H    0.113248
    61  C   -0.671660
    62  H    0.259615
    63  H    0.192487
    64  H    0.211218
    65  C   -0.292070
    66  H    0.143378
    67  H    0.165694
    68  C   -0.479614
    69  H    0.157508
    70  H    0.158746
    71  H    0.149850
    72  C   -0.334768
    73  H    0.184656
    74  H    0.167822
    75  C   -0.335736
    76  H    0.184921
    77  H    0.172084
 Sum of Mulliken charges =  -0.00000

 Dipole moment (field-independent basis, Debye):
    X=              0.5468    Y=             -1.4727    Z=             -6.3572  Tot=              6.5484
 Quadrupole moment (field-independent basis, Debye-Ang):
   XX=           -200.6449   YY=           -225.1764   ZZ=           -220.8652
   XY=            -11.1494   XZ=             -0.6085   YZ=             11.4566

 Normal termination of Gaussian 16 at Thu Feb  7 19:49:29 2019.
