 Gaussian 16, Revision A.03,
 Gaussian 16:  ES64L-G16RevA.03 25-Dec-2016

 ------------------------------------------
 #p M062X/6-31G* em=gd3 force int=ultrafine
 ------------------------------------------

 -----
 Title
 -----
 Symbolic Z-matrix:
 Charge =  0 Multiplicity = 1

                         Standard orientation:
 ---------------------------------------------------------------------
 Center     Atomic      Atomic             Coordinates (Angstroms)
 Number     Number       Type             X           Y           Z
 ---------------------------------------------------------------------
      1          6           0       -4.841981    0.483404   -0.519381
      2          6           0       -5.000883   -0.786661   -1.360245
      3          6           0       -3.653805   -1.221386   -1.950098
      4          6           0       -2.665995   -1.462118   -0.812820
      5          6           0       -2.475090   -0.176727    0.029284
      6          6           0       -3.818433    0.287703    0.602598
      7          1           0       -3.757130   -2.126078   -2.558807
      8          1           0       -5.401161   -1.595494   -0.734910
      9          1           0       -5.718908   -0.623236   -2.169998
     10          1           0       -4.506225    1.303931   -1.168306
     11          1           0       -5.807972    0.780361   -0.098479
     12          1           0       -3.050470   -2.253238   -0.161090
     13          1           0       -2.127200    0.601034   -0.663289
     14          1           0       -4.182205   -0.450726    1.325791
     15          1           0       -3.649083    1.230878    1.134990
     16          1           0       -3.291825   -0.415293   -2.602406
     17          7           0       -1.330215   -1.918225   -1.256024
     18          6           0       -0.653162   -1.241995   -2.219831
     19          6           0       -0.629519   -2.730151   -0.422466
     20          6           0        0.698663   -1.328937   -2.359219
     21          1           0       -1.246836   -0.601011   -2.858618
     22          6           0        0.724319   -2.858038   -0.490234
     23          1           0       -1.210016   -3.234345    0.342398
     24          6           0        1.465510   -2.072568   -1.414177
     25          1           0        1.179440   -0.763032   -3.146087
     26          1           0        1.213313   -3.477247    0.248487
     27          7           0        2.795198   -2.037230   -1.392927
     28          6           0        3.538964   -2.562705   -0.237630
     29          1           0        3.407741   -3.645220   -0.152771
     30          1           0        3.164409   -2.061955    0.666181
     31          6           0        3.558089   -0.981256   -2.081149
     32          1           0        3.817554   -1.309325   -3.095304
     33          1           0        2.960555   -0.067567   -2.115040
     34          7           0       -1.384715   -0.319336    0.977661
     35         16           0       -1.422560   -1.220502    2.331399
     36          8           0       -2.623695   -2.059368    2.281776
     37          8           0       -0.128516   -1.891084    2.487567
     38          6           0       -0.616363    2.724111   -0.065153
     39          6           0       -0.082181    2.088079   -1.193820
     40          6           0       -0.753592    2.149224   -2.414138
     41          6           0       -1.978729    2.808507   -2.522635
     42          6           0       -2.525325    3.422639   -1.397399
     43          6           0       -1.842227    3.382894   -0.182280
     44          1           0        0.837214    1.512648   -1.081109
     45          1           0       -0.316376    1.677146   -3.292028
     46          1           0       -2.500117    2.849330   -3.474841
     47          1           0       -3.481346    3.934364   -1.465323
     48          1           0       -2.272199    3.863852    0.694032
     49          8           0        0.541663    1.386451    1.619461
     50          1           0       -0.566679    0.355999    0.999627
     51          6           0        2.112804    0.701711    1.191813
     52          8           0        1.996366    0.171970    0.054898
     53          8           0        2.210979   -0.133485    2.291826
     54          1           0        1.538443   -0.830502    2.171263
     55          6           0        3.078302    1.870657    1.388442
     56          1           0        2.741622    2.500830    2.219033
     57          1           0        4.028467    1.422803    1.711794
     58          6           0        0.107331    2.659857    1.274185
     59          1           0       -0.589031    3.031260    2.047514
     60          1           0        0.942254    3.381239    1.261728
     61          6           0       -1.526049   -0.041038    3.660522
     62          1           0       -0.671425    0.629198    3.519648
     63          1           0       -2.473776    0.493286    3.577327
     64          1           0       -1.459796   -0.583199    4.604927
     65          6           0        3.318594    2.688533    0.122935
     66          1           0        3.689001    2.020583   -0.663405
     67          1           0        2.374091    3.092066   -0.259824
     68          6           0        4.307005    3.828034    0.357426
     69          1           0        4.495664    4.395642   -0.558916
     70          1           0        3.927294    4.525945    1.111865
     71          1           0        5.267203    3.444328    0.720018
     72          6           0        4.977607   -2.155168   -0.534335
     73          1           0        5.583117   -2.113953    0.372994
     74          1           0        5.438568   -2.865750   -1.229340
     75          6           0        4.791674   -0.788897   -1.196125
     76          1           0        4.542255   -0.048716   -0.430597
     77          1           0        5.663102   -0.451363   -1.761125
 ---------------------------------------------------------------------

 SCF Done:  E(RM062X) =  -1991.35538098     A.U. after   15 cycles

 The electronic state is 1-A.
 Alpha  occ. eigenvalues --  -90.14237 -19.62008 -19.61682 -19.58565 -19.56535
 Alpha  occ. eigenvalues --  -19.52971 -14.85240 -14.80249 -14.75515 -10.63303
 Alpha  occ. eigenvalues --  -10.63146 -10.62691 -10.62186 -10.60917 -10.59493
 Alpha  occ. eigenvalues --  -10.58129 -10.58038 -10.57875 -10.57080 -10.56738
 Alpha  occ. eigenvalues --  -10.56142 -10.56045 -10.55711 -10.55006 -10.54890
 Alpha  occ. eigenvalues --  -10.54878 -10.54813 -10.54726 -10.54451 -10.54442
 Alpha  occ. eigenvalues --  -10.54349 -10.54005 -10.53049 -10.51368 -10.51332
 Alpha  occ. eigenvalues --  -10.50323  -8.45227  -6.37450  -6.37397  -6.37283
 Alpha  occ. eigenvalues --   -1.22050  -1.13510  -1.13384  -1.10255  -1.09082
 Alpha  occ. eigenvalues --   -1.05152  -1.02662  -1.01685  -0.95741  -0.94913
 Alpha  occ. eigenvalues --   -0.93476  -0.90187  -0.88669  -0.86192  -0.85884
 Alpha  occ. eigenvalues --   -0.84744  -0.84348  -0.84037  -0.83108  -0.82746
 Alpha  occ. eigenvalues --   -0.76636  -0.76582  -0.75685  -0.73095  -0.72927
 Alpha  occ. eigenvalues --   -0.71655  -0.68259  -0.68038  -0.67835  -0.67269
 Alpha  occ. eigenvalues --   -0.66545  -0.65276  -0.64644  -0.63366  -0.60492
 Alpha  occ. eigenvalues --   -0.60339  -0.59766  -0.59467  -0.57788  -0.57754
 Alpha  occ. eigenvalues --   -0.57170  -0.56341  -0.55430  -0.54694  -0.54087
 Alpha  occ. eigenvalues --   -0.53466  -0.52776  -0.52466  -0.52187  -0.51654
 Alpha  occ. eigenvalues --   -0.51499  -0.51139  -0.50506  -0.50041  -0.49647
 Alpha  occ. eigenvalues --   -0.49152  -0.48907  -0.48334  -0.48184  -0.48029
 Alpha  occ. eigenvalues --   -0.47761  -0.47373  -0.46945  -0.46781  -0.46029
 Alpha  occ. eigenvalues --   -0.45184  -0.45070  -0.44693  -0.44061  -0.43201
 Alpha  occ. eigenvalues --   -0.42456  -0.42290  -0.41238  -0.41200  -0.40986
 Alpha  occ. eigenvalues --   -0.40538  -0.40475  -0.40144  -0.40008  -0.39488
 Alpha  occ. eigenvalues --   -0.39237  -0.38907  -0.38557  -0.38043  -0.37805
 Alpha  occ. eigenvalues --   -0.37413  -0.36903  -0.36647  -0.35760  -0.35159
 Alpha  occ. eigenvalues --   -0.34911  -0.34245  -0.32342  -0.30701  -0.29715
 Alpha  occ. eigenvalues --   -0.28689  -0.28270  -0.27865  -0.25933  -0.24819
 Alpha virt. eigenvalues --   -0.01338   0.00478   0.03411   0.03930   0.10220
 Alpha virt. eigenvalues --    0.10776   0.11496   0.12324   0.13303   0.13380
 Alpha virt. eigenvalues --    0.14134   0.14484   0.15219   0.15479   0.15619

 Mulliken charges:
               1
     1  C   -0.306795
     2  C   -0.307480
     3  C   -0.311615
     4  C   -0.062659
     5  C    0.067118
     6  C   -0.306923
     7  H    0.174244
     8  H    0.162908
     9  H    0.166085
    10  H    0.152457
    11  H    0.164056
    12  H    0.208799
    13  H    0.172832
    14  H    0.190036
    15  H    0.160341
    16  H    0.156788
    17  N   -0.435001
    18  C    0.085320
    19  C    0.085870
    20  C   -0.214932
    21  H    0.204218
    22  C   -0.223789
    23  H    0.246604
    24  C    0.443825
    25  H    0.192293
    26  H    0.209418
    27  N   -0.519510
    28  C   -0.162222
    29  H    0.169689
    30  H    0.214802
    31  C   -0.145931
    32  H    0.163014
    33  H    0.203886
    34  N   -0.817295
    35  S    1.239288
    36  O   -0.607517
    37  O   -0.601212
    38  C    0.052103
    39  C   -0.198748
    40  C   -0.191893
    41  C   -0.174000
    42  C   -0.164022
    43  C   -0.205957
    44  H    0.228852
    45  H    0.138747
    46  H    0.154893
    47  H    0.158786
    48  H    0.154183
    49  O   -0.641417
    50  H    0.454132
    51  C    0.695302
    52  O   -0.636757
    53  O   -0.683857
    54  H    0.444368
    55  C   -0.338502
    56  H    0.157900
    57  H    0.150711
    58  C   -0.060264
    59  H    0.115483
    60  H    0.140759
    61  C   -0.669057
    62  H    0.266049
    63  H    0.199450
    64  H    0.221412
    65  C   -0.287614
    66  H    0.142793
    67  H    0.147776
    68  C   -0.476174
    69  H    0.150487
    70  H    0.151578
    71  H    0.148628
    72  C   -0.334732
    73  H    0.184549
    74  H    0.162285
    75  C   -0.337585
    76  H    0.201628
    77  H    0.166713
 Sum of Mulliken charges =  -0.00000

 Dipole moment (field-independent basis, Debye):
    X=             -2.5530    Y=             -1.7645    Z=             -5.8831  Tot=              6.6515
 Quadrupole moment (field-independent basis, Debye-Ang):
   XX=           -205.6346   YY=           -224.0509   ZZ=           -218.5352
   XY=            -13.1230   XZ=             -3.8665   YZ=             10.6170

 Normal termination of Gaussian 16 at Thu Feb  7 18:34:34 2019.
