 Gaussian 16, Revision A.03,
 Gaussian 16:  ES64L-G16RevA.03 25-Dec-2016

 ------------------------------------------
 #p M062X/6-31G* em=gd3 force int=ultrafine
 ------------------------------------------

 -----
 Title
 -----
 Symbolic Z-matrix:
 Charge =  0 Multiplicity = 1

                         Standard orientation:
 ---------------------------------------------------------------------
 Center     Atomic      Atomic             Coordinates (Angstroms)
 Number     Number       Type             X           Y           Z
 ---------------------------------------------------------------------
      1          6           0       -4.869422    0.079968   -0.428096
      2          6           0       -4.912695   -1.206834   -1.257801
      3          6           0       -3.532933   -1.522801   -1.847615
      4          6           0       -2.526986   -1.644076   -0.707558
      5          6           0       -2.427593   -0.318242    0.099768
      6          6           0       -3.814043    0.001310    0.679230
      7          1           0       -3.556099   -2.445888   -2.438215
      8          1           0       -5.233580   -2.043448   -0.623306
      9          1           0       -5.645859   -1.119212   -2.066388
     10          1           0       -4.624644    0.922400   -1.090317
     11          1           0       -5.857163    0.284002   -0.001136
     12          1           0       -2.840672   -2.442830   -0.030156
     13          1           0       -2.213943    0.460457   -0.647521
     14          1           0       -4.084953   -0.767951    1.413604
     15          1           0       -3.742905    0.960080    1.206963
     16          1           0       -3.252430   -0.699534   -2.519091
     17          7           0       -1.162225   -2.012491   -1.150403
     18          6           0       -0.550020   -1.330919   -2.145757
     19          6           0       -0.407808   -2.764438   -0.314619
     20          6           0        0.803467   -1.360215   -2.322996
     21          1           0       -1.193161   -0.737024   -2.782331
     22          6           0        0.951199   -2.838924   -0.425460
     23          1           0       -0.943473   -3.261036    0.487282
     24          6           0        1.624447   -2.053603   -1.391160
     25          1           0        1.235058   -0.798534   -3.140950
     26          1           0        1.487567   -3.413633    0.316503
     27          7           0        2.960793   -1.956464   -1.408167
     28          6           0        3.757908   -2.449237   -0.277941
     29          1           0        3.704480   -3.539962   -0.212273
     30          1           0        3.365910   -2.015015    0.652542
     31          6           0        3.653890   -0.878647   -2.129874
     32          1           0        3.913116   -1.208335   -3.143457
     33          1           0        3.010038    0.003230   -2.182487
     34          7           0       -1.302605   -0.276053    1.011209
     35         16           0       -1.264172   -1.214616    2.280589
     36          8           0       -2.257286   -2.311794    2.253981
     37          8           0        0.134714   -1.664206    2.519701
     38          6           0       -1.116899    2.859088   -0.171424
     39          6           0       -0.396556    2.186129   -1.164191
     40          6           0       -0.929474    2.061537   -2.445378
     41          6           0       -2.195294    2.567571   -2.742140
     42          6           0       -2.925468    3.214022   -1.747076
     43          6           0       -2.382905    3.360570   -0.472477
     44          1           0        0.556600    1.724307   -0.912540
     45          1           0       -0.353728    1.559110   -3.219471
     46          1           0       -2.610799    2.460387   -3.739781
     47          1           0       -3.917217    3.602356   -1.959975
     48          1           0       -2.953906    3.860989    0.306689
     49          8           0        0.224730    1.921707    1.621648
     50          1           0       -0.282298    1.100426    1.352661
     51          6           0        2.437824    0.653199    1.222537
     52          8           0        2.121805    0.212599    0.130566
     53          8           0        2.206211    0.026056    2.363807
     54          1           0        1.508848   -0.677322    2.248384
     55          6           0        3.193106    1.947607    1.413533
     56          1           0        2.714641    2.475410    2.243614
     57          1           0        4.214289    1.702272    1.738914
     58          6           0       -0.539458    3.021313    1.219448
     59          1           0       -1.361403    3.231850    1.923925
     60          1           0        0.124940    3.897257    1.239461
     61          6           0       -1.640972   -0.186616    3.697226
     62          1           0       -0.939156    0.650682    3.679307
     63          1           0       -2.668322    0.168887    3.596885
     64          1           0       -1.521909   -0.778172    4.605977
     65          6           0        3.210669    2.803863    0.154000
     66          1           0        3.636388    2.227459   -0.676406
     67          1           0        2.175265    3.023842   -0.129176
     68          6           0        3.988359    4.102183    0.345976
     69          1           0        4.000076    4.698236   -0.571139
     70          1           0        3.540502    4.712733    1.137044
     71          1           0        5.027387    3.902499    0.630177
     72          6           0        5.164215   -1.941277   -0.583914
     73          1           0        5.766133   -1.841130    0.321490
     74          1           0        5.675215   -2.631092   -1.263394
     75          6           0        4.895556   -0.603379   -1.277164
     76          1           0        4.643837    0.154968   -0.530241
     77          1           0        5.738274   -0.244632   -1.871639
 ---------------------------------------------------------------------

 SCF Done:  E(RM062X) =  -1991.38912532     A.U. after   15 cycles

 The electronic state is 1-A.
 Alpha  occ. eigenvalues --  -90.10356 -19.63375 -19.60089 -19.59248 -19.58571
 Alpha  occ. eigenvalues --  -19.58347 -14.84803 -14.80504 -14.69387 -10.65469
 Alpha  occ. eigenvalues --  -10.63230 -10.62400 -10.61507 -10.59138 -10.59069
 Alpha  occ. eigenvalues --  -10.59047 -10.57822 -10.57421 -10.56822 -10.56653
 Alpha  occ. eigenvalues --  -10.56041 -10.55751 -10.55517 -10.54973 -10.54918
 Alpha  occ. eigenvalues --  -10.54866 -10.54589 -10.54549 -10.54497 -10.53775
 Alpha  occ. eigenvalues --  -10.53707 -10.53560 -10.53168 -10.53070 -10.52622
 Alpha  occ. eigenvalues --  -10.52597  -8.41321  -6.33558  -6.33466  -6.33385
 Alpha  occ. eigenvalues --   -1.19123  -1.17880  -1.12937  -1.10291  -1.09852
 Alpha  occ. eigenvalues --   -1.09141  -1.06147  -0.97537  -0.95262  -0.94800
 Alpha  occ. eigenvalues --   -0.92185  -0.89852  -0.88582  -0.88070  -0.85018
 Alpha  occ. eigenvalues --   -0.84946  -0.83650  -0.83504  -0.83301  -0.80185
 Alpha  occ. eigenvalues --   -0.79148  -0.76351  -0.75655  -0.74682  -0.70939
 Alpha  occ. eigenvalues --   -0.70192  -0.69094  -0.68717  -0.68359  -0.68010
 Alpha  occ. eigenvalues --   -0.65807  -0.64725  -0.63941  -0.63426  -0.61622
 Alpha  occ. eigenvalues --   -0.60267  -0.59391  -0.58986  -0.58354  -0.56167
 Alpha  occ. eigenvalues --   -0.55451  -0.55164  -0.55063  -0.54091  -0.53687
 Alpha  occ. eigenvalues --   -0.53440  -0.53073  -0.52408  -0.51961  -0.51718
 Alpha  occ. eigenvalues --   -0.51136  -0.50990  -0.50610  -0.50158  -0.49829
 Alpha  occ. eigenvalues --   -0.49598  -0.49491  -0.48829  -0.48348  -0.47996
 Alpha  occ. eigenvalues --   -0.47784  -0.47171  -0.46980  -0.46960  -0.45930
 Alpha  occ. eigenvalues --   -0.45813  -0.45241  -0.43950  -0.43650  -0.43423
 Alpha  occ. eigenvalues --   -0.42766  -0.42484  -0.42238  -0.41939  -0.41895
 Alpha  occ. eigenvalues --   -0.41157  -0.40855  -0.40564  -0.39911  -0.39530
 Alpha  occ. eigenvalues --   -0.39364  -0.39208  -0.38780  -0.38381  -0.37868
 Alpha  occ. eigenvalues --   -0.37322  -0.36226  -0.35868  -0.35354  -0.35117
 Alpha  occ. eigenvalues --   -0.34387  -0.33112  -0.32076  -0.31712  -0.31499
 Alpha  occ. eigenvalues --   -0.29855  -0.28886  -0.28318  -0.27466  -0.25404
 Alpha virt. eigenvalues --   -0.01023   0.00651   0.03291   0.03790   0.09076
 Alpha virt. eigenvalues --    0.10152   0.10914   0.11799   0.12990   0.13491
 Alpha virt. eigenvalues --    0.13862   0.14249   0.15098   0.15492   0.15765

 Mulliken charges:
               1
     1  C   -0.303921
     2  C   -0.304184
     3  C   -0.309676
     4  C   -0.073341
     5  C    0.062539
     6  C   -0.305130
     7  H    0.165994
     8  H    0.160929
     9  H    0.159132
    10  H    0.146277
    11  H    0.156678
    12  H    0.212825
    13  H    0.141475
    14  H    0.179431
    15  H    0.149404
    16  H    0.150665
    17  N   -0.424370
    18  C    0.099992
    19  C    0.083923
    20  C   -0.227796
    21  H    0.205057
    22  C   -0.226952
    23  H    0.264257
    24  C    0.428242
    25  H    0.188176
    26  H    0.207008
    27  N   -0.528842
    28  C   -0.157661
    29  H    0.178380
    30  H    0.199268
    31  C   -0.147028
    32  H    0.169553
    33  H    0.195816
    34  N   -0.755494
    35  S    1.249493
    36  O   -0.646777
    37  O   -0.670465
    38  C    0.048671
    39  C   -0.177071
    40  C   -0.187109
    41  C   -0.169897
    42  C   -0.162048
    43  C   -0.197983
    44  H    0.203396
    45  H    0.139247
    46  H    0.156409
    47  H    0.161848
    48  H    0.156839
    49  O   -0.712319
    50  H    0.481543
    51  C    0.647778
    52  O   -0.523059
    53  O   -0.645322
    54  H    0.485689
    55  C   -0.367897
    56  H    0.200745
    57  H    0.164108
    58  C   -0.066973
    59  H    0.128299
    60  H    0.157506
    61  C   -0.656783
    62  H    0.219579
    63  H    0.187972
    64  H    0.207841
    65  C   -0.287219
    66  H    0.143669
    67  H    0.165862
    68  C   -0.480367
    69  H    0.158515
    70  H    0.158506
    71  H    0.150295
    72  C   -0.337306
    73  H    0.184150
    74  H    0.170029
    75  C   -0.335745
    76  H    0.182488
    77  H    0.173242
 Sum of Mulliken charges =  -0.00000

 Dipole moment (field-independent basis, Debye):
    X=              1.5485    Y=             -0.3832    Z=             -6.5278  Tot=              6.7199
 Quadrupole moment (field-independent basis, Debye-Ang):
   XX=           -198.1988   YY=           -223.1008   ZZ=           -221.9323
   XY=            -11.9842   XZ=             -1.1167   YZ=             12.4057

 Normal termination of Gaussian 16 at Fri Feb  8 00:23:49 2019.
