 Gaussian 16, Revision A.03,
 Gaussian 16:  ES64L-G16RevA.03 25-Dec-2016

 ------------------------------------------
 #p M062X/6-31G* em=gd3 force int=ultrafine
 ------------------------------------------

 -----
 Title
 -----
 Symbolic Z-matrix:
 Charge =  0 Multiplicity = 1

                         Standard orientation:
 ---------------------------------------------------------------------
 Center     Atomic      Atomic             Coordinates (Angstroms)
 Number     Number       Type             X           Y           Z
 ---------------------------------------------------------------------
      1          6           0       -4.783564    0.303336   -0.684568
      2          6           0       -4.910273   -1.011829   -1.459194
      3          6           0       -3.551161   -1.446548   -2.020793
      4          6           0       -2.570021   -1.598027   -0.864108
      5          6           0       -2.397762   -0.256621   -0.104386
      6          6           0       -3.754719    0.198648    0.445521
      7          1           0       -3.630389   -2.386839   -2.576996
      8          1           0       -5.293631   -1.796734   -0.794126
      9          1           0       -5.629371   -0.906434   -2.277608
     10          1           0       -4.476131    1.098286   -1.376540
     11          1           0       -5.756770    0.592485   -0.274566
     12          1           0       -2.950787   -2.347459   -0.163234
     13          1           0       -2.075468    0.488486   -0.843314
     14          1           0       -4.102624   -0.512954    1.201484
     15          1           0       -3.617961    1.171635    0.928861
     16          1           0       -3.203779   -0.671496   -2.717235
     17          7           0       -1.222868   -2.060300   -1.257413
     18          6           0       -0.537283   -1.419431   -2.240184
     19          6           0       -0.524069   -2.789004   -0.345553
     20          6           0        0.820908   -1.451298   -2.317587
     21          1           0       -1.132536   -0.853406   -2.945885
     22          6           0        0.834812   -2.842461   -0.339174
     23          1           0       -1.116448   -3.270868    0.424655
     24          6           0        1.572740   -2.067197   -1.272976
     25          1           0        1.310201   -0.921936   -3.123678
     26          1           0        1.321095   -3.377363    0.464321
     27          7           0        2.891342   -1.931297   -1.180970
     28          6           0        3.615197   -2.282564    0.051112
     29          1           0        3.515376   -3.350245    0.265272
     30          1           0        3.196727   -1.687017    0.876467
     31          6           0        3.613856   -0.915659   -1.956069
     32          1           0        3.864599   -1.309392   -2.948762
     33          1           0        2.978909   -0.031401   -2.062034
     34          7           0       -1.309387   -0.295913    0.859377
     35         16           0       -1.395268   -1.103462    2.271149
     36          8           0       -2.578563   -1.969440    2.245649
     37          8           0       -0.099463   -1.738065    2.530502
     38          6           0       -0.654519    2.706989    0.029055
     39          6           0       -0.182111    2.246372   -1.209794
     40          6           0       -0.982904    2.317431   -2.347520
     41          6           0       -2.274679    2.840669   -2.280048
     42          6           0       -2.759233    3.291899   -1.055916
     43          6           0       -1.950578    3.226512    0.079336
     44          1           0        0.794744    1.780839   -1.253572
     45          1           0       -0.589840    1.967128   -3.299404
     46          1           0       -2.893890    2.899919   -3.170981
     47          1           0       -3.763699    3.700380   -0.982068
     48          1           0       -2.336198    3.594159    1.028562
     49          8           0        0.667579    1.605252    1.895398
     50          1           0       -0.313736   -0.053061    0.557902
     51          6           0        1.785066    0.856576    1.251914
     52          8           0        1.359291    0.240434    0.166795
     53          8           0        2.177125   -0.016527    2.295834
     54          1           0        1.464899   -0.678285    2.358714
     55          6           0        3.005087    1.804589    1.095489
     56          1           0        2.988836    2.535750    1.914236
     57          1           0        3.886490    1.178704    1.281068
     58          6           0        0.207283    2.783783    1.292365
     59          1           0       -0.403037    3.280053    2.058193
     60          1           0        1.048676    3.462766    1.089510
     61          6           0       -1.613329    0.146539    3.516260
     62          1           0       -0.754180    0.816603    3.423655
     63          1           0       -2.551293    0.666868    3.314971
     64          1           0       -1.643104   -0.350581    4.487154
     65          6           0        3.183995    2.506468   -0.247679
     66          1           0        3.098854    1.763086   -1.048625
     67          1           0        2.381913    3.229364   -0.433221
     68          6           0        4.529921    3.223708   -0.338515
     69          1           0        4.660441    3.722824   -1.303734
     70          1           0        4.621541    3.981913    0.446540
     71          1           0        5.360231    2.519506   -0.208340
     72          6           0        5.050349   -1.879966   -0.271717
     73          1           0        5.635480   -1.701847    0.632405
     74          1           0        5.541738   -2.665632   -0.855857
     75          6           0        4.859502   -0.616880   -1.115749
     76          1           0        4.646151    0.228917   -0.457712
     77          1           0        5.725832   -0.368191   -1.732403
 ---------------------------------------------------------------------

 SCF Done:  E(RM062X) =  -1991.35895553     A.U. after   14 cycles

 The electronic state is 1-A.
 Alpha  occ. eigenvalues --  -90.14041 -19.61659 -19.61645 -19.58793 -19.56739
 Alpha  occ. eigenvalues --  -19.51393 -14.85116 -14.80459 -14.75441 -10.63373
 Alpha  occ. eigenvalues --  -10.62745 -10.62331 -10.62048 -10.60644 -10.59197
 Alpha  occ. eigenvalues --  -10.58746 -10.57900 -10.57878 -10.57045 -10.56857
 Alpha  occ. eigenvalues --  -10.56652 -10.55597 -10.55578 -10.55208 -10.55068
 Alpha  occ. eigenvalues --  -10.54742 -10.54707 -10.54626 -10.54467 -10.54305
 Alpha  occ. eigenvalues --  -10.54229 -10.54173 -10.53092 -10.51689 -10.51587
 Alpha  occ. eigenvalues --  -10.49809  -8.45020  -6.37235  -6.37214  -6.37058
 Alpha  occ. eigenvalues --   -1.21873  -1.13677  -1.13454  -1.10120  -1.09360
 Alpha  occ. eigenvalues --   -1.05915  -1.01570  -0.99425  -0.95669  -0.94915
 Alpha  occ. eigenvalues --   -0.93452  -0.90222  -0.88757  -0.85929  -0.85807
 Alpha  occ. eigenvalues --   -0.84770  -0.84633  -0.84345  -0.82994  -0.82593
 Alpha  occ. eigenvalues --   -0.76636  -0.76378  -0.75829  -0.74388  -0.72694
 Alpha  occ. eigenvalues --   -0.71552  -0.68348  -0.68296  -0.67899  -0.67138
 Alpha  occ. eigenvalues --   -0.66754  -0.65177  -0.64862  -0.63520  -0.60579
 Alpha  occ. eigenvalues --   -0.60406  -0.59799  -0.58814  -0.57849  -0.57539
 Alpha  occ. eigenvalues --   -0.57118  -0.56416  -0.55681  -0.55155  -0.54165
 Alpha  occ. eigenvalues --   -0.53435  -0.52622  -0.52382  -0.52340  -0.51852
 Alpha  occ. eigenvalues --   -0.51514  -0.51096  -0.50954  -0.49838  -0.49593
 Alpha  occ. eigenvalues --   -0.49163  -0.48799  -0.48210  -0.48107  -0.48061
 Alpha  occ. eigenvalues --   -0.47611  -0.47419  -0.46890  -0.46472  -0.46087
 Alpha  occ. eigenvalues --   -0.44934  -0.44649  -0.44067  -0.43877  -0.43245
 Alpha  occ. eigenvalues --   -0.42429  -0.42070  -0.41583  -0.41440  -0.41206
 Alpha  occ. eigenvalues --   -0.40874  -0.40434  -0.40023  -0.39860  -0.39531
 Alpha  occ. eigenvalues --   -0.39237  -0.39035  -0.38429  -0.37865  -0.37576
 Alpha  occ. eigenvalues --   -0.37341  -0.36731  -0.36564  -0.35669  -0.34866
 Alpha  occ. eigenvalues --   -0.34334  -0.33869  -0.31765  -0.30950  -0.29690
 Alpha  occ. eigenvalues --   -0.28878  -0.28528  -0.27552  -0.24995  -0.24530
 Alpha virt. eigenvalues --   -0.01387   0.00512   0.03642   0.03862   0.10224
 Alpha virt. eigenvalues --    0.11066   0.11545   0.12074   0.13216   0.13540
 Alpha virt. eigenvalues --    0.14222   0.14680   0.14829   0.15381   0.15601

 Mulliken charges:
               1
     1  C   -0.306048
     2  C   -0.306866
     3  C   -0.310399
     4  C   -0.058900
     5  C    0.056839
     6  C   -0.311697
     7  H    0.173720
     8  H    0.162894
     9  H    0.165033
    10  H    0.150380
    11  H    0.162862
    12  H    0.208337
    13  H    0.172323
    14  H    0.193823
    15  H    0.163243
    16  H    0.153603
    17  N   -0.432926
    18  C    0.070496
    19  C    0.065021
    20  C   -0.205877
    21  H    0.207087
    22  C   -0.209383
    23  H    0.245872
    24  C    0.451966
    25  H    0.190683
    26  H    0.211756
    27  N   -0.529932
    28  C   -0.176801
    29  H    0.169987
    30  H    0.237936
    31  C   -0.154069
    32  H    0.168649
    33  H    0.200203
    34  N   -0.817359
    35  S    1.254047
    36  O   -0.611498
    37  O   -0.609765
    38  C    0.092129
    39  C   -0.176994
    40  C   -0.188642
    41  C   -0.170444
    42  C   -0.163604
    43  C   -0.212030
    44  H    0.202063
    45  H    0.141494
    46  H    0.154420
    47  H    0.158056
    48  H    0.151886
    49  O   -0.547661
    50  H    0.449832
    51  C    0.728517
    52  O   -0.724637
    53  O   -0.718116
    54  H    0.445921
    55  C   -0.337282
    56  H    0.150361
    57  H    0.147752
    58  C   -0.095318
    59  H    0.141393
    60  H    0.146511
    61  C   -0.662591
    62  H    0.270321
    63  H    0.196320
    64  H    0.217332
    65  C   -0.295903
    66  H    0.141899
    67  H    0.147128
    68  C   -0.476351
    69  H    0.149619
    70  H    0.156436
    71  H    0.143998
    72  C   -0.331897
    73  H    0.187526
    74  H    0.163860
    75  C   -0.344552
    76  H    0.193923
    77  H    0.172085
 Sum of Mulliken charges =  -0.00000

 Dipole moment (field-independent basis, Debye):
    X=             -2.0083    Y=             -1.9717    Z=             -6.4967  Tot=              7.0801
 Quadrupole moment (field-independent basis, Debye-Ang):
   XX=           -204.5186   YY=           -223.1620   ZZ=           -219.9936
   XY=            -12.0923   XZ=             -5.1352   YZ=             10.2694

 Normal termination of Gaussian 16 at Thu Feb  7 17:28:49 2019.
