 Gaussian 16, Revision A.03,
 Gaussian 16:  ES64L-G16RevA.03 25-Dec-2016

 ------------------------------------------
 #p M062X/6-31G* em=gd3 force int=ultrafine
 ------------------------------------------

 -----
 Title
 -----
 Symbolic Z-matrix:
 Charge =  0 Multiplicity = 1

                         Standard orientation:
 ---------------------------------------------------------------------
 Center     Atomic      Atomic             Coordinates (Angstroms)
 Number     Number       Type             X           Y           Z
 ---------------------------------------------------------------------
      1          6           0       -4.783051    0.274375   -0.716587
      2          6           0       -4.898174   -1.051508   -1.474527
      3          6           0       -3.533257   -1.486469   -2.021477
      4          6           0       -2.558167   -1.617048   -0.857041
      5          6           0       -2.398364   -0.265214   -0.113160
      6          6           0       -3.761771    0.188828    0.421869
      7          1           0       -3.603873   -2.434576   -2.565453
      8          1           0       -5.281881   -1.829439   -0.801520
      9          1           0       -5.612375   -0.960777   -2.298959
     10          1           0       -4.474525    1.061810   -1.416674
     11          1           0       -5.760444    0.564202   -0.317160
     12          1           0       -2.938743   -2.359717   -0.148872
     13          1           0       -2.075160    0.472584   -0.859090
     14          1           0       -4.111231   -0.515973    1.183382
     15          1           0       -3.633957    1.167994    0.894912
     16          1           0       -3.185940   -0.719016   -2.726272
     17          7           0       -1.206433   -2.076822   -1.237130
     18          6           0       -0.520793   -1.449345   -2.228354
     19          6           0       -0.507429   -2.788366   -0.311923
     20          6           0        0.837597   -1.478312   -2.302425
     21          1           0       -1.116220   -0.897304   -2.944819
     22          6           0        0.851606   -2.836846   -0.301362
     23          1           0       -1.100140   -3.260639    0.463935
     24          6           0        1.589013   -2.074889   -1.246488
     25          1           0        1.326986   -0.960808   -3.116087
     26          1           0        1.337931   -3.356865    0.511871
     27          7           0        2.907251   -1.934599   -1.155491
     28          6           0        3.632207   -2.266867    0.081197
     29          1           0        3.533771   -3.331566    0.310600
     30          1           0        3.213234   -1.660611    0.898546
     31          6           0        3.628598   -0.931392   -1.947433
     32          1           0        3.878069   -1.340668   -2.934152
     33          1           0        2.993319   -0.049063   -2.067197
     34          7           0       -1.316285   -0.286264    0.858284
     35         16           0       -1.408007   -1.076485    2.279080
     36          8           0       -2.588822   -1.945999    2.258797
     37          8           0       -0.112336   -1.704756    2.554397
     38          6           0       -0.663491    2.708937    0.016115
     39          6           0       -0.193004    2.247930   -1.223567
     40          6           0       -0.998034    2.312368   -2.358600
     41          6           0       -2.292516    2.828709   -2.287307
     42          6           0       -2.775277    3.279440   -1.062268
     43          6           0       -1.962046    3.221359    0.070107
     44          1           0        0.786596    1.787744   -1.270650
     45          1           0       -0.606616    1.962218   -3.311456
     46          1           0       -2.915244    2.882662   -3.176100
     47          1           0       -3.781613    3.682282   -0.985719
     48          1           0       -2.345774    3.589518    1.019632
     49          8           0        0.664388    1.619976    1.885696
     50          1           0       -0.318820   -0.045719    0.558028
     51          6           0        1.778221    0.867054    1.242189
     52          8           0        1.348049    0.247095    0.161117
     53          8           0        2.174048   -0.001623    2.289271
     54          1           0        1.455264   -0.655880    2.366439
     55          6           0        2.999829    1.811570    1.077288
     56          1           0        2.986122    2.547991    1.890800
     57          1           0        3.880156    1.183863    1.265318
     58          6           0        0.203459    2.794641    1.275251
     59          1           0       -0.402702    3.298516    2.039836
     60          1           0        1.045649    3.470273    1.063126
     61          6           0       -1.636456    0.189496    3.506144
     62          1           0       -0.776712    0.858612    3.411429
     63          1           0       -2.573205    0.706644    3.290108
     64          1           0       -1.673825   -0.294519    4.483654
     65          6           0        3.178401    2.503743   -0.270903
     66          1           0        3.094339    1.754346   -1.065922
     67          1           0        2.375644    3.224914   -0.461674
     68          6           0        4.523487    3.222502   -0.366736
     69          1           0        4.653248    3.713853   -1.336086
     70          1           0        4.612686    3.987496    0.411961
     71          1           0        5.355355    2.521679   -0.229667
     72          6           0        5.066918   -1.868029   -0.248773
     73          1           0        5.652293   -1.674618    0.652041
     74          1           0        5.558841   -2.662786   -0.820028
     75          6           0        4.875477   -0.619177   -1.113766
     76          1           0        4.664192    0.238247   -0.470179
     77          1           0        5.741158   -0.381841   -1.735803
 ---------------------------------------------------------------------

 SCF Done:  E(RM062X) =  -1991.35898073     A.U. after   14 cycles

 The electronic state is 1-A.
 Alpha  occ. eigenvalues --  -90.14031 -19.61647 -19.61639 -19.58816 -19.56750
 Alpha  occ. eigenvalues --  -19.51395 -14.85109 -14.80459 -14.75420 -10.63364
 Alpha  occ. eigenvalues --  -10.62735 -10.62334 -10.62031 -10.60638 -10.59188
 Alpha  occ. eigenvalues --  -10.58773 -10.57881 -10.57867 -10.57030 -10.56864
 Alpha  occ. eigenvalues --  -10.56652 -10.55591 -10.55586 -10.55222 -10.55098
 Alpha  occ. eigenvalues --  -10.54720 -10.54700 -10.54604 -10.54444 -10.54288
 Alpha  occ. eigenvalues --  -10.54209 -10.54151 -10.53090 -10.51699 -10.51595
 Alpha  occ. eigenvalues --  -10.49815  -8.45010  -6.37225  -6.37205  -6.37048
 Alpha  occ. eigenvalues --   -1.21863  -1.13682  -1.13442  -1.10107  -1.09361
 Alpha  occ. eigenvalues --   -1.05906  -1.01563  -0.99436  -0.95662  -0.94893
 Alpha  occ. eigenvalues --   -0.93449  -0.90211  -0.88756  -0.85931  -0.85803
 Alpha  occ. eigenvalues --   -0.84756  -0.84621  -0.84356  -0.82976  -0.82583
 Alpha  occ. eigenvalues --   -0.76631  -0.76379  -0.75827  -0.74382  -0.72687
 Alpha  occ. eigenvalues --   -0.71542  -0.68354  -0.68297  -0.67883  -0.67129
 Alpha  occ. eigenvalues --   -0.66748  -0.65168  -0.64859  -0.63519  -0.60568
 Alpha  occ. eigenvalues --   -0.60404  -0.59791  -0.58798  -0.57857  -0.57524
 Alpha  occ. eigenvalues --   -0.57111  -0.56413  -0.55668  -0.55160  -0.54165
 Alpha  occ. eigenvalues --   -0.53421  -0.52615  -0.52378  -0.52332  -0.51839
 Alpha  occ. eigenvalues --   -0.51508  -0.51101  -0.50951  -0.49834  -0.49584
 Alpha  occ. eigenvalues --   -0.49161  -0.48796  -0.48213  -0.48105  -0.48051
 Alpha  occ. eigenvalues --   -0.47603  -0.47412  -0.46886  -0.46468  -0.46083
 Alpha  occ. eigenvalues --   -0.44937  -0.44636  -0.44052  -0.43869  -0.43242
 Alpha  occ. eigenvalues --   -0.42420  -0.42068  -0.41600  -0.41447  -0.41214
 Alpha  occ. eigenvalues --   -0.40871  -0.40427  -0.40022  -0.39865  -0.39553
 Alpha  occ. eigenvalues --   -0.39231  -0.39036  -0.38411  -0.37856  -0.37577
 Alpha  occ. eigenvalues --   -0.37337  -0.36728  -0.36559  -0.35664  -0.34867
 Alpha  occ. eigenvalues --   -0.34327  -0.33862  -0.31784  -0.30937  -0.29676
 Alpha  occ. eigenvalues --   -0.28880  -0.28506  -0.27534  -0.24998  -0.24532
 Alpha virt. eigenvalues --   -0.01363   0.00531   0.03658   0.03885   0.10249
 Alpha virt. eigenvalues --    0.11070   0.11519   0.12063   0.13213   0.13530
 Alpha virt. eigenvalues --    0.14242   0.14681   0.14847   0.15408   0.15605

 Mulliken charges:
               1
     1  C   -0.306044
     2  C   -0.306841
     3  C   -0.310559
     4  C   -0.058778
     5  C    0.056624
     6  C   -0.311603
     7  H    0.173743
     8  H    0.162938
     9  H    0.164988
    10  H    0.150265
    11  H    0.162835
    12  H    0.208326
    13  H    0.172234
    14  H    0.193985
    15  H    0.163239
    16  H    0.153534
    17  N   -0.433373
    18  C    0.070873
    19  C    0.065441
    20  C   -0.206357
    21  H    0.207176
    22  C   -0.209657
    23  H    0.245870
    24  C    0.453000
    25  H    0.190588
    26  H    0.211771
    27  N   -0.530603
    28  C   -0.177850
    29  H    0.169970
    30  H    0.239353
    31  C   -0.154194
    32  H    0.168867
    33  H    0.200063
    34  N   -0.817401
    35  S    1.254141
    36  O   -0.611342
    37  O   -0.609952
    38  C    0.093237
    39  C   -0.176387
    40  C   -0.188501
    41  C   -0.170325
    42  C   -0.163603
    43  C   -0.211967
    44  H    0.201322
    45  H    0.141748
    46  H    0.154329
    47  H    0.157921
    48  H    0.151688
    49  O   -0.547620
    50  H    0.449960
    51  C    0.728798
    52  O   -0.724354
    53  O   -0.718278
    54  H    0.445877
    55  C   -0.337194
    56  H    0.150517
    57  H    0.147140
    58  C   -0.095939
    59  H    0.141430
    60  H    0.146424
    61  C   -0.662470
    62  H    0.269808
    63  H    0.196282
    64  H    0.217248
    65  C   -0.295814
    66  H    0.142089
    67  H    0.147089
    68  C   -0.476639
    69  H    0.149651
    70  H    0.156487
    71  H    0.144157
    72  C   -0.331939
    73  H    0.187487
    74  H    0.163959
    75  C   -0.344707
    76  H    0.193594
    77  H    0.172224
 Sum of Mulliken charges =  -0.00000

 Dipole moment (field-independent basis, Debye):
    X=             -1.9398    Y=             -2.0365    Z=             -6.4950  Tot=              7.0778
 Quadrupole moment (field-independent basis, Debye-Ang):
   XX=           -204.3736   YY=           -223.0528   ZZ=           -220.1046
   XY=            -12.1012   XZ=             -5.0217   YZ=             10.3662

 Normal termination of Gaussian 16 at Thu Feb  7 17:51:39 2019.
