 Gaussian 16, Revision A.03,
 Gaussian 16:  ES64L-G16RevA.03 25-Dec-2016

 ------------------------------------------
 #p M062X/6-31G* em=gd3 force int=ultrafine
 ------------------------------------------

 -----
 Title
 -----
 Symbolic Z-matrix:
 Charge =  0 Multiplicity = 1

                         Standard orientation:
 ---------------------------------------------------------------------
 Center     Atomic      Atomic             Coordinates (Angstroms)
 Number     Number       Type             X           Y           Z
 ---------------------------------------------------------------------
      1          6           0       -4.781524    0.416521   -0.542254
      2          6           0       -4.968311   -0.869461   -1.353016
      3          6           0       -3.640707   -1.321773   -1.973767
      4          6           0       -2.627663   -1.535061   -0.855121
      5          6           0       -2.394718   -0.222978   -0.061789
      6          6           0       -3.718285    0.251489    0.548384
      7          1           0       -3.764275   -2.242246   -2.554323
      8          1           0       -5.350601   -1.665272   -0.700332
      9          1           0       -5.711123   -0.719122   -2.142677
     10          1           0       -4.476199    1.224873   -1.219412
     11          1           0       -5.732644    0.717017   -0.090785
     12          1           0       -3.005825   -2.296039   -0.165617
     13          1           0       -2.078344    0.536257   -0.788470
     14          1           0       -4.058847   -0.472181    1.296582
     15          1           0       -3.537882    1.206559    1.053147
     16          1           0       -3.294353   -0.535581   -2.658243
     17          7           0       -1.304672   -2.017231   -1.303582
     18          6           0       -0.620292   -1.334401   -2.259591
     19          6           0       -0.606592   -2.806620   -0.443744
     20          6           0        0.736148   -1.381006   -2.354776
     21          1           0       -1.215007   -0.718392   -2.922867
     22          6           0        0.751167   -2.886276   -0.461758
     23          1           0       -1.196273   -3.314782    0.311607
     24          6           0        1.490862   -2.068729   -1.357507
     25          1           0        1.225058   -0.812195   -3.133956
     26          1           0        1.237979   -3.474384    0.303161
     27          7           0        2.811312   -1.954084   -1.270358
     28          6           0        3.538595   -2.389653   -0.067913
     29          1           0        3.429698   -3.467504    0.080340
     30          1           0        3.132076   -1.840068    0.793972
     31          6           0        3.535862   -0.887696   -1.974595
     32          1           0        3.785549   -1.212839   -2.992013
     33          1           0        2.902013    0.002388   -2.011721
     34          7           0       -1.276358   -0.320840    0.862817
     35         16           0       -1.330427   -1.173056    2.250960
     36          8           0       -2.527040   -2.020531    2.227597
     37          8           0       -0.035764   -1.830610    2.448157
     38          6           0       -0.613066    2.692371    0.047774
     39          6           0       -0.139532    2.215517   -1.184718
     40          6           0       -0.924861    2.308874   -2.332083
     41          6           0       -2.200462    2.871663   -2.282240
     42          6           0       -2.684360    3.343021   -1.065180
     43          6           0       -1.892713    3.253936    0.080207
     44          1           0        0.823401    1.718354   -1.214020
     45          1           0       -0.530573    1.945044   -3.278702
     46          1           0       -2.806315    2.947927   -3.180967
     47          1           0       -3.674789    3.785804   -1.005382
     48          1           0       -2.278472    3.636637    1.023078
     49          8           0        0.696284    1.549693    1.899233
     50          1           0       -0.293008   -0.070192    0.552536
     51          6           0        1.836586    0.826177    1.257589
     52          8           0        1.433922    0.219014    0.159713
     53          8           0        2.225396   -0.057809    2.293213
     54          1           0        1.532395   -0.742428    2.316250
     55          6           0        3.036607    1.802349    1.135583
     56          1           0        2.991281    2.518212    1.966462
     57          1           0        3.932173    1.196437    1.321342
     58          6           0        0.228556    2.739358    1.326802
     59          1           0       -0.401614    3.201743    2.097674
     60          1           0        1.061725    3.438229    1.159858
     61          6           0       -1.496808    0.034218    3.545070
     62          1           0       -0.632716    0.697966    3.452131
     63          1           0       -2.433750    0.572007    3.389871
     64          1           0       -1.505744   -0.498349    4.497484
     65          6           0        3.211368    2.535601   -0.191212
     66          1           0        3.206615    1.804141   -1.006924
     67          1           0        2.367721    3.205678   -0.393437
     68          6           0        4.508322    3.343045   -0.221464
     69          1           0        4.640461    3.863962   -1.174914
     70          1           0        4.516163    4.093498    0.575063
     71          1           0        5.377935    2.691695   -0.067505
     72          6           0        4.974142   -1.975848   -0.371609
     73          1           0        5.568214   -1.871028    0.538022
     74          1           0        5.453543   -2.718641   -1.018636
     75          6           0        4.781356   -0.651677   -1.114838
     76          1           0        4.562053    0.137876   -0.391702
     77          1           0        5.646696   -0.352885   -1.710182
 ---------------------------------------------------------------------

 SCF Done:  E(RM062X) =  -1991.35867349     A.U. after   14 cycles

 The electronic state is 1-A.
 Alpha  occ. eigenvalues --  -90.14142 -19.61752 -19.61730 -19.58711 -19.56712
 Alpha  occ. eigenvalues --  -19.51306 -14.85158 -14.80451 -14.75675 -10.63414
 Alpha  occ. eigenvalues --  -10.62783 -10.62279 -10.62167 -10.60708 -10.59313
 Alpha  occ. eigenvalues --  -10.58511 -10.57988 -10.57932 -10.57141 -10.56889
 Alpha  occ. eigenvalues --  -10.56679 -10.55646 -10.55591 -10.55125 -10.54876
 Alpha  occ. eigenvalues --  -10.54827 -10.54769 -10.54710 -10.54560 -10.54387
 Alpha  occ. eigenvalues --  -10.54310 -10.54296 -10.53082 -10.51558 -10.51495
 Alpha  occ. eigenvalues --  -10.49727  -8.45119  -6.37336  -6.37314  -6.37156
 Alpha  occ. eigenvalues --   -1.21967  -1.13601  -1.13502  -1.10223  -1.09348
 Alpha  occ. eigenvalues --   -1.05891  -1.01696  -0.99346  -0.95728  -0.94983
 Alpha  occ. eigenvalues --   -0.93483  -0.90289  -0.88752  -0.85888  -0.85805
 Alpha  occ. eigenvalues --   -0.84818  -0.84695  -0.84255  -0.83050  -0.82673
 Alpha  occ. eigenvalues --   -0.76660  -0.76303  -0.75833  -0.74379  -0.72768
 Alpha  occ. eigenvalues --   -0.71627  -0.68327  -0.68244  -0.67936  -0.67189
 Alpha  occ. eigenvalues --   -0.66751  -0.65221  -0.64865  -0.63523  -0.60566
 Alpha  occ. eigenvalues --   -0.60403  -0.59788  -0.58973  -0.57808  -0.57583
 Alpha  occ. eigenvalues --   -0.57164  -0.56432  -0.55767  -0.55168  -0.54187
 Alpha  occ. eigenvalues --   -0.53526  -0.52648  -0.52438  -0.52410  -0.51902
 Alpha  occ. eigenvalues --   -0.51544  -0.51039  -0.50816  -0.49867  -0.49577
 Alpha  occ. eigenvalues --   -0.49158  -0.48824  -0.48208  -0.48129  -0.48041
 Alpha  occ. eigenvalues --   -0.47657  -0.47455  -0.46903  -0.46448  -0.46101
 Alpha  occ. eigenvalues --   -0.44885  -0.44724  -0.44130  -0.43876  -0.43257
 Alpha  occ. eigenvalues --   -0.42494  -0.42121  -0.41432  -0.41355  -0.41135
 Alpha  occ. eigenvalues --   -0.40896  -0.40470  -0.39994  -0.39820  -0.39355
 Alpha  occ. eigenvalues --   -0.39254  -0.39061  -0.38449  -0.37934  -0.37588
 Alpha  occ. eigenvalues --   -0.37387  -0.36735  -0.36569  -0.35721  -0.34895
 Alpha  occ. eigenvalues --   -0.34382  -0.33942  -0.31682  -0.31066  -0.29763
 Alpha  occ. eigenvalues --   -0.28882  -0.28596  -0.27631  -0.24901  -0.24451
 Alpha virt. eigenvalues --   -0.01506   0.00419   0.03566   0.03770   0.10148
 Alpha virt. eigenvalues --    0.11016   0.11649   0.12166   0.13189   0.13527
 Alpha virt. eigenvalues --    0.14203   0.14630   0.14767   0.15246   0.15601

 Mulliken charges:
               1
     1  C   -0.306227
     2  C   -0.307055
     3  C   -0.309463
     4  C   -0.059924
     5  C    0.056987
     6  C   -0.311710
     7  H    0.173873
     8  H    0.162776
     9  H    0.165395
    10  H    0.151057
    11  H    0.163188
    12  H    0.208828
    13  H    0.172856
    14  H    0.193004
    15  H    0.163581
    16  H    0.154111
    17  N   -0.430738
    18  C    0.067834
    19  C    0.063629
    20  C   -0.202504
    21  H    0.206630
    22  C   -0.208964
    23  H    0.245525
    24  C    0.446629
    25  H    0.191732
    26  H    0.211599
    27  N   -0.526652
    28  C   -0.171926
    29  H    0.169791
    30  H    0.231203
    31  C   -0.154563
    32  H    0.166467
    33  H    0.204161
    34  N   -0.816417
    35  S    1.253762
    36  O   -0.612297
    37  O   -0.607328
    38  C    0.086254
    39  C   -0.182630
    40  C   -0.189493
    41  C   -0.170920
    42  C   -0.163693
    43  C   -0.212187
    44  H    0.209115
    45  H    0.140703
    46  H    0.154852
    47  H    0.158566
    48  H    0.152482
    49  O   -0.549606
    50  H    0.449082
    51  C    0.725807
    52  O   -0.723034
    53  O   -0.718084
    54  H    0.445237
    55  C   -0.338408
    56  H    0.149247
    57  H    0.150722
    58  C   -0.092269
    59  H    0.140449
    60  H    0.147424
    61  C   -0.663153
    62  H    0.272762
    63  H    0.196263
    64  H    0.217481
    65  C   -0.294003
    66  H    0.137918
    67  H    0.146394
    68  C   -0.473681
    69  H    0.149080
    70  H    0.155440
    71  H    0.143996
    72  C   -0.331828
    73  H    0.187384
    74  H    0.163134
    75  C   -0.343484
    76  H    0.196573
    77  H    0.171257
 Sum of Mulliken charges =  -0.00000

 Dipole moment (field-independent basis, Debye):
    X=             -2.4495    Y=             -1.8680    Z=             -6.3950  Tot=              7.0983
 Quadrupole moment (field-independent basis, Debye-Ang):
   XX=           -205.5069   YY=           -223.0248   ZZ=           -219.7960
   XY=            -12.2629   XZ=             -5.3811   YZ=             10.0093

 Normal termination of Gaussian 16 at Thu Feb  7 15:27:32 2019.
