 Gaussian 16, Revision A.03,
 Gaussian 16:  ES64L-G16RevA.03 25-Dec-2016

 ------------------------------------------
 #p M062X/6-31G* em=gd3 force int=ultrafine
 ------------------------------------------

 -----
 Title
 -----
 Symbolic Z-matrix:
 Charge =  0 Multiplicity = 1

                         Standard orientation:
 ---------------------------------------------------------------------
 Center     Atomic      Atomic             Coordinates (Angstroms)
 Number     Number       Type             X           Y           Z
 ---------------------------------------------------------------------
      1          6           0       -4.782201    0.241255   -0.749997
      2          6           0       -4.884318   -1.095461   -1.490564
      3          6           0       -3.513121   -1.529515   -2.022055
      4          6           0       -2.544564   -1.637653   -0.849814
      5          6           0       -2.398859   -0.275330   -0.122343
      6          6           0       -3.769227    0.176116    0.397165
      7          1           0       -3.574097   -2.485585   -2.553170
      8          1           0       -5.268116   -1.866339   -0.809553
      9          1           0       -5.593215   -1.020403   -2.321142
     10          1           0       -4.472703    1.021084   -1.458205
     11          1           0       -5.764178    0.530962   -0.361867
     12          1           0       -2.924458   -2.373594   -0.134229
     13          1           0       -2.075187    0.455361   -0.875129
     14          1           0       -4.120147   -0.521934    1.164100
     15          1           0       -3.651456    1.161535    0.859554
     16          1           0       -3.166163   -0.769870   -2.735381
     17          7           0       -1.187734   -2.093440   -1.216027
     18          6           0       -0.502089   -1.479047   -2.215300
     19          6           0       -0.488404   -2.787141   -0.277553
     20          6           0        0.856494   -1.504610   -2.286062
     21          1           0       -1.097744   -0.940926   -2.942042
     22          6           0        0.870775   -2.829960   -0.262779
     23          1           0       -1.081347   -3.249988    0.503758
     24          6           0        1.607575   -2.081478   -1.219100
     25          1           0        1.345829   -0.998738   -3.106992
     26          1           0        1.357227   -3.334816    0.559931
     27          7           0        2.925409   -1.936724   -1.129072
     28          6           0        3.651206   -2.249784    0.112222
     29          1           0        3.554928   -3.311470    0.356427
     30          1           0        3.230829   -1.633562    0.921466
     31          6           0        3.646155   -0.947005   -1.938142
     32          1           0        3.896421   -1.373253   -2.917485
     33          1           0        3.010328   -0.067408   -2.074416
     34          7           0       -1.323140   -0.277146    0.856448
     35         16           0       -1.420971   -1.048758    2.287095
     36          8           0       -2.598689   -1.922526    2.271747
     37          8           0       -0.125143   -1.669267    2.578873
     38          6           0       -0.673867    2.711423    0.002730
     39          6           0       -0.206009    2.249179   -1.237203
     40          6           0       -1.015742    2.306657   -2.369227
     41          6           0       -2.312725    2.816136   -2.294189
     42          6           0       -2.793439    3.266635   -1.068615
     43          6           0       -1.975358    3.216058    0.060670
     44          1           0        0.775756    1.793801   -1.287182
     45          1           0       -0.626299    1.955920   -3.322230
     46          1           0       -2.939086    2.864932   -3.180715
     47          1           0       -3.802203    3.663158   -0.988858
     48          1           0       -2.357697    3.583797    1.010994
     49          8           0        0.660440    1.635598    1.875617
     50          1           0       -0.324105   -0.039036    0.556039
     51          6           0        1.770741    0.877903    1.231725
     52          8           0        1.335939    0.253986    0.154651
     53          8           0        2.169200    0.013706    2.281686
     54          1           0        1.445758   -0.633446    2.371173
     55          6           0        2.993640    1.819202    1.058143
     56          1           0        2.983203    2.560694    1.867381
     57          1           0        3.873775    1.191680    1.247814
     58          6           0        0.197891    2.805946    1.257807
     59          1           0       -0.405375    3.314942    2.020449
     60          1           0        1.039223    3.479249    1.038703
     61          6           0       -1.661392    0.233041    3.495418
     62          1           0       -0.801339    0.901655    3.399049
     63          1           0       -2.596990    0.746138    3.264371
     64          1           0       -1.706621   -0.237833    4.479276
     65          6           0        3.169598    2.502348   -0.294919
     66          1           0        3.084978    1.747390   -1.084845
     67          1           0        2.365912    3.221032   -0.489587
     68          6           0        4.513622    3.222020   -0.397217
     69          1           0        4.642361    3.705588   -1.370619
     70          1           0        4.601981    3.993346    0.375267
     71          1           0        5.346766    2.523710   -0.254985
     72          6           0        5.085329   -1.853441   -0.223847
     73          1           0        5.670135   -1.644246    0.673873
     74          1           0        5.578993   -2.656575   -0.781826
     75          6           0        4.892513   -0.619306   -1.109659
     76          1           0        4.680593    0.248958   -0.480889
     77          1           0        5.757981   -0.391712   -1.735614
 ---------------------------------------------------------------------

 SCF Done:  E(RM062X) =  -1991.35900247     A.U. after   14 cycles

 The electronic state is 1-A.
 Alpha  occ. eigenvalues --  -90.14020 -19.61632 -19.61629 -19.58825 -19.56757
 Alpha  occ. eigenvalues --  -19.51404 -14.85101 -14.80463 -14.75390 -10.63356
 Alpha  occ. eigenvalues --  -10.62722 -10.62342 -10.62013 -10.60627 -10.59171
 Alpha  occ. eigenvalues --  -10.58806 -10.57863 -10.57860 -10.57015 -10.56842
 Alpha  occ. eigenvalues --  -10.56649 -10.55599 -10.55584 -10.55240 -10.55129
 Alpha  occ. eigenvalues --  -10.54693 -10.54690 -10.54578 -10.54410 -10.54265
 Alpha  occ. eigenvalues --  -10.54187 -10.54128 -10.53074 -10.51710 -10.51601
 Alpha  occ. eigenvalues --  -10.49827  -8.44999  -6.37213  -6.37193  -6.37037
 Alpha  occ. eigenvalues --   -1.21850  -1.13687  -1.13428  -1.10093  -1.09362
 Alpha  occ. eigenvalues --   -1.05908  -1.01542  -0.99449  -0.95651  -0.94873
 Alpha  occ. eigenvalues --   -0.93444  -0.90197  -0.88757  -0.85941  -0.85796
 Alpha  occ. eigenvalues --   -0.84744  -0.84608  -0.84369  -0.82956  -0.82570
 Alpha  occ. eigenvalues --   -0.76626  -0.76386  -0.75824  -0.74379  -0.72675
 Alpha  occ. eigenvalues --   -0.71531  -0.68365  -0.68296  -0.67869  -0.67119
 Alpha  occ. eigenvalues --   -0.66742  -0.65155  -0.64854  -0.63518  -0.60566
 Alpha  occ. eigenvalues --   -0.60403  -0.59788  -0.58775  -0.57864  -0.57515
 Alpha  occ. eigenvalues --   -0.57102  -0.56408  -0.55653  -0.55163  -0.54165
 Alpha  occ. eigenvalues --   -0.53405  -0.52607  -0.52371  -0.52322  -0.51822
 Alpha  occ. eigenvalues --   -0.51500  -0.51106  -0.50950  -0.49833  -0.49581
 Alpha  occ. eigenvalues --   -0.49161  -0.48791  -0.48216  -0.48104  -0.48043
 Alpha  occ. eigenvalues --   -0.47598  -0.47408  -0.46881  -0.46466  -0.46079
 Alpha  occ. eigenvalues --   -0.44942  -0.44624  -0.44044  -0.43859  -0.43238
 Alpha  occ. eigenvalues --   -0.42409  -0.42065  -0.41621  -0.41453  -0.41223
 Alpha  occ. eigenvalues --   -0.40867  -0.40421  -0.40022  -0.39874  -0.39575
 Alpha  occ. eigenvalues --   -0.39223  -0.39032  -0.38395  -0.37845  -0.37574
 Alpha  occ. eigenvalues --   -0.37328  -0.36733  -0.36549  -0.35657  -0.34866
 Alpha  occ. eigenvalues --   -0.34321  -0.33854  -0.31801  -0.30921  -0.29654
 Alpha  occ. eigenvalues --   -0.28874  -0.28483  -0.27516  -0.25005  -0.24540
 Alpha virt. eigenvalues --   -0.01337   0.00550   0.03684   0.03909   0.10273
 Alpha virt. eigenvalues --    0.11073   0.11492   0.12053   0.13210   0.13524
 Alpha virt. eigenvalues --    0.14262   0.14685   0.14854   0.15437   0.15605

 Mulliken charges:
               1
     1  C   -0.306041
     2  C   -0.306795
     3  C   -0.310704
     4  C   -0.058557
     5  C    0.056289
     6  C   -0.311523
     7  H    0.173747
     8  H    0.162976
     9  H    0.164932
    10  H    0.150140
    11  H    0.162799
    12  H    0.208277
    13  H    0.172131
    14  H    0.194145
    15  H    0.163223
    16  H    0.153453
    17  N   -0.433820
    18  C    0.071248
    19  C    0.065945
    20  C   -0.206766
    21  H    0.207264
    22  C   -0.210026
    23  H    0.245839
    24  C    0.454084
    25  H    0.190469
    26  H    0.211722
    27  N   -0.531355
    28  C   -0.178816
    29  H    0.169977
    30  H    0.240661
    31  C   -0.154267
    32  H    0.169127
    33  H    0.199788
    34  N   -0.817510
    35  S    1.254430
    36  O   -0.611163
    37  O   -0.610114
    38  C    0.094297
    39  C   -0.175985
    40  C   -0.188507
    41  C   -0.170153
    42  C   -0.163476
    43  C   -0.212051
    44  H    0.200654
    45  H    0.141955
    46  H    0.154244
    47  H    0.157762
    48  H    0.151408
    49  O   -0.547688
    50  H    0.449945
    51  C    0.728982
    52  O   -0.724197
    53  O   -0.718217
    54  H    0.446036
    55  C   -0.337067
    56  H    0.150626
    57  H    0.146531
    58  C   -0.096330
    59  H    0.141466
    60  H    0.146484
    61  C   -0.662364
    62  H    0.269290
    63  H    0.196310
    64  H    0.217222
    65  C   -0.295851
    66  H    0.142329
    67  H    0.147241
    68  C   -0.476908
    69  H    0.149700
    70  H    0.156563
    71  H    0.144205
    72  C   -0.332053
    73  H    0.187459
    74  H    0.164060
    75  C   -0.344806
    76  H    0.193317
    77  H    0.172357
 Sum of Mulliken charges =  -0.00000

 Dipole moment (field-independent basis, Debye):
    X=             -1.8584    Y=             -2.1083    Z=             -6.4887  Tot=              7.0712
 Quadrupole moment (field-independent basis, Debye-Ang):
   XX=           -204.1733   YY=           -222.9447   ZZ=           -220.2257
   XY=            -12.1049   XZ=             -4.9089   YZ=             10.4565

 Normal termination of Gaussian 16 at Thu Feb  7 18:17:50 2019.
