 Gaussian 16, Revision A.03,
 Gaussian 16:  ES64L-G16RevA.03 25-Dec-2016

 ------------------------------------------
 #p M062X/6-31G* em=gd3 force int=ultrafine
 ------------------------------------------

 -----
 Title
 -----
 Symbolic Z-matrix:
 Charge =  0 Multiplicity = 1

                         Standard orientation:
 ---------------------------------------------------------------------
 Center     Atomic      Atomic             Coordinates (Angstroms)
 Number     Number       Type             X           Y           Z
 ---------------------------------------------------------------------
      1          6           0       -4.782631    0.357450   -0.617897
      2          6           0       -4.934878   -0.938390   -1.420092
      3          6           0       -3.588865   -1.375636   -2.010906
      4          6           0       -2.594255   -1.564281   -0.871413
      5          6           0       -2.395243   -0.241515   -0.086037
      6          6           0       -3.738026    0.217695    0.493904
      7          1           0       -3.687074   -2.302296   -2.586552
      8          1           0       -5.317761   -1.734014   -0.767583
      9          1           0       -5.664310   -0.806327   -2.225364
     10          1           0       -4.476986    1.164374   -1.296575
     11          1           0       -5.746494    0.647353   -0.186928
     12          1           0       -2.974847   -2.324058   -0.181756
     13          1           0       -2.075719    0.515356   -0.813945
     14          1           0       -4.082309   -0.505148    1.241017
     15          1           0       -3.582334    1.179216    0.994418
     16          1           0       -3.241614   -0.589288   -2.694726
     17          7           0       -1.257430   -2.033173   -1.291566
     18          6           0       -0.572178   -1.368113   -2.258707
     19          6           0       -0.559001   -2.793868   -0.406144
     20          6           0        0.785456   -1.405664   -2.343247
     21          1           0       -1.167135   -0.776353   -2.943350
     22          6           0        0.799518   -2.857754   -0.409261
     23          1           0       -1.150506   -3.292583    0.353996
     24          6           0        1.538301   -2.057872   -1.321394
     25          1           0        1.274544   -0.854567   -3.134831
     26          1           0        1.285851   -3.420529    0.374863
     27          7           0        2.857540   -1.930243   -1.228404
     28          6           0        3.580275   -2.319853   -0.007217
     29          1           0        3.478665   -3.393164    0.175442
     30          1           0        3.162978   -1.746945    0.834424
     31          6           0        3.581399   -0.889570   -1.969058
     32          1           0        3.835597   -1.251600   -2.972833
     33          1           0        2.945934   -0.003007   -2.046734
     34          7           0       -1.293603   -0.313666    0.860534
     35         16           0       -1.365876   -1.151218    2.255699
     36          8           0       -2.553986   -2.010444    2.224201
     37          8           0       -0.069697   -1.796363    2.484435
     38          6           0       -0.638729    2.702375    0.051529
     39          6           0       -0.164483    2.240355   -1.185990
     40          6           0       -0.957772    2.325109   -2.328160
     41          6           0       -2.243054    2.864381   -2.267157
     42          6           0       -2.728533    3.319108   -1.044746
     43          6           0       -1.928102    3.239155    0.095247
     44          1           0        0.807104    1.762505   -1.225140
     45          1           0       -0.563011    1.973506   -3.278941
     46          1           0       -2.855785    2.934445   -3.161691
     47          1           0       -3.727002    3.742031   -0.976436
     48          1           0       -2.314532    3.609724    1.042590
     49          8           0        0.675985    1.576042    1.908229
     50          1           0       -0.302224   -0.065029    0.557606
     51          6           0        1.802373    0.839433    1.263488
     52          8           0        1.386888    0.230279    0.170647
     53          8           0        2.192975   -0.042032    2.301084
     54          1           0        1.491550   -0.716691    2.341267
     55          6           0        3.015280    1.798473    1.124341
     56          1           0        2.988807    2.520742    1.950298
     57          1           0        3.901192    1.176708    1.307331
     58          6           0        0.214302    2.761901    1.321901
     59          1           0       -0.403665    3.242375    2.091603
     60          1           0        1.053453    3.448647    1.135971
     61          6           0       -1.563386    0.070888    3.531516
     62          1           0       -0.703844    0.741156    3.442806
     63          1           0       -2.502579    0.598056    3.354843
     64          1           0       -1.581844   -0.448562    4.491035
     65          6           0        3.193856    2.515847   -0.210750
     66          1           0        3.118740    1.781211   -1.019370
     67          1           0        2.387187    3.234088   -0.392051
     68          6           0        4.536330    3.242550   -0.289068
     69          1           0        4.665453    3.755021   -1.247562
     70          1           0        4.620857    3.990539    0.505906
     71          1           0        5.370029    2.541620   -0.166106
     72          6           0        5.015660   -1.908079   -0.316002
     73          1           0        5.600770   -1.761568    0.593752
     74          1           0        5.506319   -2.673464   -0.927142
     75          6           0        4.823609   -0.616640   -1.115319
     76          1           0        4.603541    0.203558   -0.427730
     77          1           0        5.690834   -0.342742   -1.719889
 ---------------------------------------------------------------------

 SCF Done:  E(RM062X) =  -1991.35889193     A.U. after   14 cycles

 The electronic state is 1-A.
 Alpha  occ. eigenvalues --  -90.14070 -19.61689 -19.61670 -19.58768 -19.56733
 Alpha  occ. eigenvalues --  -19.51386 -14.85133 -14.80458 -14.75515 -10.63393
 Alpha  occ. eigenvalues --  -10.62767 -10.62323 -10.62093 -10.60667 -10.59235
 Alpha  occ. eigenvalues --  -10.58665 -10.57943 -10.57893 -10.57083 -10.56874
 Alpha  occ. eigenvalues --  -10.56660 -10.55614 -10.55574 -10.55170 -10.54988
 Alpha  occ. eigenvalues --  -10.54782 -10.54726 -10.54663 -10.54512 -10.54342
 Alpha  occ. eigenvalues --  -10.54265 -10.54221 -10.53098 -10.51646 -10.51546
 Alpha  occ. eigenvalues --  -10.49788  -8.45049  -6.37264  -6.37243  -6.37086
 Alpha  occ. eigenvalues --   -1.21901  -1.13651  -1.13482  -1.10152  -1.09356
 Alpha  occ. eigenvalues --   -1.05918  -1.01613  -0.99408  -0.95692  -0.94957
 Alpha  occ. eigenvalues --   -0.93462  -0.90251  -0.88754  -0.85899  -0.85815
 Alpha  occ. eigenvalues --   -0.84799  -0.84658  -0.84310  -0.83028  -0.82618
 Alpha  occ. eigenvalues --   -0.76646  -0.76360  -0.75832  -0.74397  -0.72718
 Alpha  occ. eigenvalues --   -0.71578  -0.68335  -0.68282  -0.67926  -0.67159
 Alpha  occ. eigenvalues --   -0.66766  -0.65200  -0.64871  -0.63521  -0.60581
 Alpha  occ. eigenvalues --   -0.60407  -0.59801  -0.58868  -0.57827  -0.57560
 Alpha  occ. eigenvalues --   -0.57136  -0.56425  -0.55715  -0.55158  -0.54170
 Alpha  occ. eigenvalues --   -0.53470  -0.52633  -0.52398  -0.52361  -0.51885
 Alpha  occ. eigenvalues --   -0.51527  -0.51077  -0.50935  -0.49846  -0.49599
 Alpha  occ. eigenvalues --   -0.49159  -0.48806  -0.48203  -0.48107  -0.48072
 Alpha  occ. eigenvalues --   -0.47626  -0.47431  -0.46895  -0.46471  -0.46094
 Alpha  occ. eigenvalues --   -0.44917  -0.44679  -0.44096  -0.43886  -0.43251
 Alpha  occ. eigenvalues --   -0.42452  -0.42085  -0.41530  -0.41423  -0.41181
 Alpha  occ. eigenvalues --   -0.40878  -0.40448  -0.40014  -0.39848  -0.39465
 Alpha  occ. eigenvalues --   -0.39249  -0.39044  -0.38452  -0.37887  -0.37582
 Alpha  occ. eigenvalues --   -0.37363  -0.36729  -0.36570  -0.35685  -0.34877
 Alpha  occ. eigenvalues --   -0.34355  -0.33892  -0.31732  -0.30993  -0.29727
 Alpha  occ. eigenvalues --   -0.28885  -0.28570  -0.27588  -0.24985  -0.24519
 Alpha virt. eigenvalues --   -0.01441   0.00470   0.03606   0.03818   0.10183
 Alpha virt. eigenvalues --    0.11054   0.11604   0.12109   0.13217   0.13554
 Alpha virt. eigenvalues --    0.14201   0.14676   0.14804   0.15322   0.15600

 Mulliken charges:
               1
     1  C   -0.306098
     2  C   -0.306915
     3  C   -0.310074
     4  C   -0.059330
     5  C    0.057213
     6  C   -0.311863
     7  H    0.173738
     8  H    0.162813
     9  H    0.165160
    10  H    0.150703
    11  H    0.162959
    12  H    0.208480
    13  H    0.172546
    14  H    0.193445
    15  H    0.163402
    16  H    0.153787
    17  N   -0.431915
    18  C    0.069443
    19  C    0.064228
    20  C   -0.204607
    21  H    0.206935
    22  C   -0.209047
    23  H    0.245850
    24  C    0.449542
    25  H    0.191031
    26  H    0.211746
    27  N   -0.528384
    28  C   -0.174673
    29  H    0.169903
    30  H    0.235088
    31  C   -0.154060
    32  H    0.167976
    33  H    0.201088
    34  N   -0.817174
    35  S    1.253888
    36  O   -0.611984
    37  O   -0.609041
    38  C    0.089872
    39  C   -0.178921
    40  C   -0.188977
    41  C   -0.170584
    42  C   -0.163642
    43  C   -0.212154
    44  H    0.204384
    45  H    0.141085
    46  H    0.154626
    47  H    0.158333
    48  H    0.152274
    49  O   -0.548120
    50  H    0.449714
    51  C    0.727597
    52  O   -0.724363
    53  O   -0.718107
    54  H    0.445727
    55  C   -0.337806
    56  H    0.150120
    57  H    0.149012
    58  C   -0.094168
    59  H    0.141241
    60  H    0.146762
    61  C   -0.662756
    62  H    0.271262
    63  H    0.196273
    64  H    0.217315
    65  C   -0.295749
    66  H    0.141363
    67  H    0.147012
    68  C   -0.475658
    69  H    0.149364
    70  H    0.156195
    71  H    0.143894
    72  C   -0.331840
    73  H    0.187583
    74  H    0.163539
    75  C   -0.344132
    76  H    0.194926
    77  H    0.171701
 Sum of Mulliken charges =  -0.00000

 Dipole moment (field-independent basis, Debye):
    X=             -2.1840    Y=             -1.8683    Z=             -6.4782  Tot=              7.0871
 Quadrupole moment (field-independent basis, Debye-Ang):
   XX=           -204.9320   YY=           -223.2644   ZZ=           -219.8108
   XY=            -12.1091   XZ=             -5.3084   YZ=             10.1033

 Normal termination of Gaussian 16 at Thu Feb  7 16:42:52 2019.
