 Gaussian 16, Revision A.03,
 Gaussian 16:  ES64L-G16RevA.03 25-Dec-2016

 ------------------------------------------
 #p M062X/6-31G* em=gd3 force int=ultrafine
 ------------------------------------------

 -----
 Title
 -----
 Symbolic Z-matrix:
 Charge =  0 Multiplicity = 1

                         Standard orientation:
 ---------------------------------------------------------------------
 Center     Atomic      Atomic             Coordinates (Angstroms)
 Number     Number       Type             X           Y           Z
 ---------------------------------------------------------------------
      1          6           0       -4.869317    0.181994   -0.449113
      2          6           0       -4.954199   -1.110000   -1.267304
      3          6           0       -3.584912   -1.476483   -1.852723
      4          6           0       -2.579838   -1.615735   -0.713546
      5          6           0       -2.444985   -0.288349    0.086707
      6          6           0       -3.821405    0.075833    0.663193
      7          1           0       -3.637722   -2.404192   -2.434078
      8          1           0       -5.304433   -1.929467   -0.626114
      9          1           0       -5.682420   -1.005067   -2.078412
     10          1           0       -4.591395    1.008860   -1.117959
     11          1           0       -5.851097    0.425717   -0.029352
     12          1           0       -2.909498   -2.404042   -0.030682
     13          1           0       -2.210182    0.479859   -0.665628
     14          1           0       -4.118573   -0.679908    1.401267
     15          1           0       -3.721335    1.035008    1.185106
     16          1           0       -3.280274   -0.669664   -2.533409
     17          7           0       -1.223053   -2.014180   -1.156831
     18          6           0       -0.598231   -1.347403   -2.154966
     19          6           0       -0.478464   -2.762306   -0.308672
     20          6           0        0.755932   -1.389864   -2.324205
     21          1           0       -1.231675   -0.753113   -2.800791
     22          6           0        0.880565   -2.849719   -0.411118
     23          1           0       -1.021792   -3.245404    0.496403
     24          6           0        1.566525   -2.081167   -1.381342
     25          1           0        1.196326   -0.837535   -3.143864
     26          1           0        1.406891   -3.417843    0.342968
     27          7           0        2.904149   -1.995887   -1.391296
     28          6           0        3.687142   -2.475837   -0.245184
     29          1           0        3.624398   -3.564699   -0.161645
     30          1           0        3.290668   -2.023061    0.674403
     31          6           0        3.611225   -0.931201   -2.119881
     32          1           0        3.874356   -1.273870   -3.127948
     33          1           0        2.975438   -0.044407   -2.186855
     34          7           0       -1.316092   -0.273646    0.991305
     35         16           0       -1.287199   -1.185246    2.281303
     36          8           0       -2.314735   -2.249993    2.289818
     37          8           0        0.102948   -1.667454    2.506651
     38          6           0       -0.976636    2.848451   -0.148649
     39          6           0       -0.319248    2.160078   -1.175539
     40          6           0       -0.906827    2.067884   -2.435344
     41          6           0       -2.166366    2.618961   -2.675935
     42          6           0       -2.837301    3.271864   -1.644916
     43          6           0       -2.238964    3.386370   -0.392180
     44          1           0        0.629001    1.666094   -0.969676
     45          1           0       -0.379404    1.558010   -3.238631
     46          1           0       -2.622960    2.540210   -3.658111
     47          1           0       -3.824735    3.692055   -1.811396
     48          1           0       -2.760926    3.892196    0.416848
     49          8           0        0.266513    1.815618    1.661886
     50          1           0       -0.291567    1.041022    1.342141
     51          6           0        2.441986    0.620671    1.182586
     52          8           0        2.095579    0.195887    0.094430
     53          8           0        2.258421   -0.035629    2.318232
     54          1           0        1.536579   -0.714163    2.216314
     55          6           0        3.186417    1.921901    1.370940
     56          1           0        2.671458    2.463765    2.170363
     57          1           0        4.193881    1.691395    1.744516
     58          6           0       -0.343555    2.991357    1.219132
     59          1           0       -1.108022    3.347301    1.929022
     60          1           0        0.437612    3.765769    1.182830
     61          6           0       -1.603533   -0.108442    3.676929
     62          1           0       -0.862903    0.693630    3.628166
     63          1           0       -2.613604    0.294025    3.578439
     64          1           0       -1.500968   -0.681654    4.599232
     65          6           0        3.252051    2.751980    0.094331
     66          1           0        3.671167    2.145035   -0.717211
     67          1           0        2.231904    3.003153   -0.217694
     68          6           0        4.072575    4.026007    0.271649
     69          1           0        4.127794    4.596489   -0.660053
     70          1           0        3.632319    4.674413    1.036456
     71          1           0        5.096475    3.793571    0.584141
     72          6           0        5.100358   -1.984098   -0.545225
     73          1           0        5.693130   -1.873097    0.364987
     74          1           0        5.613055   -2.688822   -1.207674
     75          6           0        4.850388   -0.655633   -1.262959
     76          1           0        4.604301    0.117743   -0.530187
     77          1           0        5.700771   -0.315487   -1.857464
 ---------------------------------------------------------------------

 SCF Done:  E(RM062X) =  -1991.38664360     A.U. after   15 cycles

 The electronic state is 1-A.
 Alpha  occ. eigenvalues --  -90.10301 -19.63462 -19.60131 -19.59014 -19.58468
 Alpha  occ. eigenvalues --  -19.58318 -14.84786 -14.80458 -14.69329 -10.65593
 Alpha  occ. eigenvalues --  -10.63209 -10.62413 -10.61519 -10.59133 -10.59108
 Alpha  occ. eigenvalues --  -10.58977 -10.57822 -10.57391 -10.56777 -10.56686
 Alpha  occ. eigenvalues --  -10.55983 -10.55720 -10.55574 -10.55011 -10.54946
 Alpha  occ. eigenvalues --  -10.54891 -10.54616 -10.54583 -10.54504 -10.53865
 Alpha  occ. eigenvalues --  -10.53581 -10.53534 -10.53315 -10.53276 -10.52751
 Alpha  occ. eigenvalues --  -10.52625  -8.41261  -6.33498  -6.33407  -6.33327
 Alpha  occ. eigenvalues --   -1.19199  -1.17802  -1.12925  -1.10165  -1.09914
 Alpha  occ. eigenvalues --   -1.09104  -1.06074  -0.97528  -0.95302  -0.94760
 Alpha  occ. eigenvalues --   -0.92188  -0.89831  -0.88562  -0.88216  -0.85046
 Alpha  occ. eigenvalues --   -0.84895  -0.83674  -0.83515  -0.83298  -0.80114
 Alpha  occ. eigenvalues --   -0.79279  -0.76327  -0.75630  -0.74666  -0.70937
 Alpha  occ. eigenvalues --   -0.70225  -0.69216  -0.68685  -0.68342  -0.68053
 Alpha  occ. eigenvalues --   -0.65903  -0.64742  -0.63923  -0.63458  -0.61601
 Alpha  occ. eigenvalues --   -0.60257  -0.59372  -0.59042  -0.58350  -0.56157
 Alpha  occ. eigenvalues --   -0.55509  -0.55219  -0.55115  -0.54234  -0.53780
 Alpha  occ. eigenvalues --   -0.53446  -0.53057  -0.52529  -0.51920  -0.51679
 Alpha  occ. eigenvalues --   -0.51096  -0.50965  -0.50614  -0.50065  -0.49833
 Alpha  occ. eigenvalues --   -0.49610  -0.49537  -0.48794  -0.48325  -0.47992
 Alpha  occ. eigenvalues --   -0.47809  -0.47194  -0.47042  -0.46973  -0.45880
 Alpha  occ. eigenvalues --   -0.45668  -0.45219  -0.43945  -0.43663  -0.43445
 Alpha  occ. eigenvalues --   -0.42816  -0.42694  -0.42187  -0.42020  -0.41867
 Alpha  occ. eigenvalues --   -0.41176  -0.40900  -0.40532  -0.39889  -0.39581
 Alpha  occ. eigenvalues --   -0.39360  -0.39272  -0.38927  -0.38400  -0.37988
 Alpha  occ. eigenvalues --   -0.37326  -0.36223  -0.35812  -0.35340  -0.35151
 Alpha  occ. eigenvalues --   -0.34321  -0.33045  -0.32020  -0.31646  -0.31454
 Alpha  occ. eigenvalues --   -0.29902  -0.28850  -0.28320  -0.27379  -0.25364
 Alpha virt. eigenvalues --   -0.01038   0.00671   0.03193   0.03752   0.08947
 Alpha virt. eigenvalues --    0.10172   0.10920   0.11812   0.12955   0.13550
 Alpha virt. eigenvalues --    0.13852   0.14299   0.14992   0.15480   0.15831

 Mulliken charges:
               1
     1  C   -0.303953
     2  C   -0.304190
     3  C   -0.309671
     4  C   -0.072829
     5  C    0.065061
     6  C   -0.304924
     7  H    0.166580
     8  H    0.161084
     9  H    0.159173
    10  H    0.145593
    11  H    0.156857
    12  H    0.211428
    13  H    0.141057
    14  H    0.179607
    15  H    0.150230
    16  H    0.150013
    17  N   -0.423953
    18  C    0.098510
    19  C    0.085452
    20  C   -0.226975
    21  H    0.204680
    22  C   -0.226482
    23  H    0.262792
    24  C    0.427452
    25  H    0.187802
    26  H    0.207538
    27  N   -0.527737
    28  C   -0.158424
    29  H    0.178296
    30  H    0.198582
    31  C   -0.146303
    32  H    0.169588
    33  H    0.194635
    34  N   -0.760612
    35  S    1.248957
    36  O   -0.643744
    37  O   -0.669794
    38  C    0.049397
    39  C   -0.176345
    40  C   -0.187989
    41  C   -0.169602
    42  C   -0.161283
    43  C   -0.199130
    44  H    0.204718
    45  H    0.139243
    46  H    0.156675
    47  H    0.162069
    48  H    0.157849
    49  O   -0.715895
    50  H    0.484134
    51  C    0.655584
    52  O   -0.521551
    53  O   -0.646571
    54  H    0.484970
    55  C   -0.371108
    56  H    0.202562
    57  H    0.165298
    58  C   -0.063435
    59  H    0.127215
    60  H    0.150043
    61  C   -0.660263
    62  H    0.224749
    63  H    0.186769
    64  H    0.206781
    65  C   -0.288888
    66  H    0.145304
    67  H    0.162723
    68  C   -0.480358
    69  H    0.159141
    70  H    0.158442
    71  H    0.151423
    72  C   -0.336869
    73  H    0.184431
    74  H    0.169876
    75  C   -0.335838
    76  H    0.181361
    77  H    0.172992
 Sum of Mulliken charges =  -0.00000

 Dipole moment (field-independent basis, Debye):
    X=              1.5524    Y=             -0.2198    Z=             -6.6398  Tot=              6.8224
 Quadrupole moment (field-independent basis, Debye-Ang):
   XX=           -199.1198   YY=           -222.5336   ZZ=           -222.5037
   XY=            -11.6667   XZ=             -0.2120   YZ=             12.6603

 Normal termination of Gaussian 16 at Thu Feb  7 23:01:15 2019.
