 Gaussian 16, Revision A.03,
 Gaussian 16:  ES64L-G16RevA.03 25-Dec-2016

 ------------------------------------------
 #p M062X/6-31G* em=gd3 force int=ultrafine
 ------------------------------------------

 -----
 Title
 -----
 Symbolic Z-matrix:
 Charge =  0 Multiplicity = 1

                         Standard orientation:
 ---------------------------------------------------------------------
 Center     Atomic      Atomic             Coordinates (Angstroms)
 Number     Number       Type             X           Y           Z
 ---------------------------------------------------------------------
      1          6           0       -4.844615    0.405989   -0.510089
      2          6           0       -4.984438   -0.866446   -1.350734
      3          6           0       -3.630131   -1.278972   -1.939799
      4          6           0       -2.639113   -1.498769   -0.800811
      5          6           0       -2.459378   -0.209050    0.041925
      6          6           0       -3.815696    0.228909    0.611422
      7          1           0       -3.718858   -2.186751   -2.546866
      8          1           0       -5.371825   -1.681775   -0.725680
      9          1           0       -5.704889   -0.715190   -2.161087
     10          1           0       -4.524096    1.231082   -1.161132
     11          1           0       -5.815798    0.687298   -0.089722
     12          1           0       -3.009165   -2.295363   -0.147663
     13          1           0       -2.138799    0.572116   -0.661461
     14          1           0       -4.166276   -0.515597    1.335325
     15          1           0       -3.666190    1.175934    1.143006
     16          1           0       -3.283657   -0.467797   -2.594410
     17          7           0       -1.295804   -1.936230   -1.246411
     18          6           0       -0.633245   -1.253424   -2.212131
     19          6           0       -0.584278   -2.735323   -0.413361
     20          6           0        0.720766   -1.325286   -2.358063
     21          1           0       -1.236857   -0.618149   -2.847362
     22          6           0        0.772558   -2.850192   -0.489508
     23          1           0       -1.155170   -3.241656    0.357374
     24          6           0        1.498071   -2.063140   -1.420234
     25          1           0        1.190265   -0.752708   -3.147035
     26          1           0        1.270635   -3.459178    0.251754
     27          7           0        2.832648   -2.007425   -1.401370
     28          6           0        3.582926   -2.518597   -0.245020
     29          1           0        3.474084   -3.603182   -0.160107
     30          1           0        3.196885   -2.037420    0.664647
     31          6           0        3.576914   -0.937323   -2.088176
     32          1           0        3.844690   -1.258483   -3.101752
     33          1           0        2.964629   -0.033243   -2.131135
     34          7           0       -1.350728   -0.323869    0.972825
     35         16           0       -1.392844   -1.223860    2.312963
     36          8           0       -2.558553   -2.119303    2.280761
     37          8           0       -0.071712   -1.856129    2.489051
     38          6           0       -0.709226    2.761104   -0.066228
     39          6           0       -0.143868    2.115834   -1.175783
     40          6           0       -0.796280    2.146644   -2.406843
     41          6           0       -2.034940    2.777788   -2.540212
     42          6           0       -2.611513    3.394330   -1.432282
     43          6           0       -1.944482    3.387476   -0.209643
     44          1           0        0.784505    1.559887   -1.050774
     45          1           0       -0.339450    1.671578   -3.273553
     46          1           0       -2.544893    2.794168   -3.498806
     47          1           0       -3.578352    3.881430   -1.514745
     48          1           0       -2.389753    3.861650    0.661960
     49          8           0        0.337841    1.423483    1.627735
     50          1           0       -0.543507    0.515139    1.120030
     51          6           0        2.303669    0.611614    1.173452
     52          8           0        2.064778    0.153684    0.063824
     53          8           0        2.240512   -0.134526    2.289054
     54          1           0        1.532308   -0.806824    2.177314
     55          6           0        3.093242    1.884496    1.389256
     56          1           0        2.643943    2.466591    2.200591
     57          1           0        4.074078    1.550197    1.756095
     58          6           0       -0.037188    2.701407    1.294763
     59          1           0       -0.734403    3.133558    2.038341
     60          1           0        0.832527    3.392078    1.283835
     61          6           0       -1.535166   -0.058922    3.656253
     62          1           0       -0.707292    0.643148    3.510306
     63          1           0       -2.498463    0.447657    3.576199
     64          1           0       -1.450991   -0.600672    4.599397
     65          6           0        3.281062    2.721842    0.126813
     66          1           0        3.665813    2.079211   -0.673753
     67          1           0        2.314837    3.094807   -0.230866
     68          6           0        4.233417    3.893042    0.359919
     69          1           0        4.399488    4.465586   -0.557500
     70          1           0        3.836564    4.579756    1.115335
     71          1           0        5.207455    3.539117    0.715679
     72          6           0        5.014427   -2.080379   -0.534129
     73          1           0        5.615308   -2.024921    0.375590
     74          1           0        5.492163   -2.782894   -1.225127
     75          6           0        4.807674   -0.720500   -1.203419
     76          1           0        4.557492    0.024207   -0.442610
     77          1           0        5.673789   -0.372549   -1.769775
 ---------------------------------------------------------------------

 SCF Done:  E(RM062X) =  -1991.36101250     A.U. after   15 cycles

 The electronic state is 1-A.
 Alpha  occ. eigenvalues --  -90.12653 -19.62120 -19.60638 -19.60429 -19.58079
 Alpha  occ. eigenvalues --  -19.53538 -14.85271 -14.80592 -14.72920 -10.64984
 Alpha  occ. eigenvalues --  -10.63526 -10.62787 -10.62211 -10.60322 -10.58863
 Alpha  occ. eigenvalues --  -10.58760 -10.58354 -10.58072 -10.57215 -10.56287
 Alpha  occ. eigenvalues --  -10.55726 -10.55358 -10.55217 -10.54885 -10.54716
 Alpha  occ. eigenvalues --  -10.54496 -10.54426 -10.54346 -10.54261 -10.53661
 Alpha  occ. eigenvalues --  -10.53616 -10.53311 -10.52999 -10.52586 -10.52388
 Alpha  occ. eigenvalues --  -10.52207  -8.43653  -6.35876  -6.35811  -6.35716
 Alpha  occ. eigenvalues --   -1.20378  -1.17442  -1.13465  -1.09533  -1.08703
 Alpha  occ. eigenvalues --   -1.07862  -1.03793  -0.99636  -0.95470  -0.94476
 Alpha  occ. eigenvalues --   -0.93160  -0.90255  -0.88832  -0.87396  -0.85049
 Alpha  occ. eigenvalues --   -0.84712  -0.84277  -0.83672  -0.82764  -0.81591
 Alpha  occ. eigenvalues --   -0.78386  -0.76699  -0.75896  -0.71998  -0.71885
 Alpha  occ. eigenvalues --   -0.71205  -0.68643  -0.68541  -0.68307  -0.67313
 Alpha  occ. eigenvalues --   -0.66003  -0.64589  -0.64206  -0.63142  -0.62125
 Alpha  occ. eigenvalues --   -0.60458  -0.60080  -0.58408  -0.58190  -0.56925
 Alpha  occ. eigenvalues --   -0.56337  -0.56199  -0.54891  -0.54165  -0.53850
 Alpha  occ. eigenvalues --   -0.53367  -0.53059  -0.52889  -0.51976  -0.51602
 Alpha  occ. eigenvalues --   -0.51505  -0.50849  -0.50775  -0.50426  -0.50090
 Alpha  occ. eigenvalues --   -0.49840  -0.48777  -0.48462  -0.48429  -0.47357
 Alpha  occ. eigenvalues --   -0.47265  -0.47206  -0.46800  -0.46319  -0.46008
 Alpha  occ. eigenvalues --   -0.45828  -0.44907  -0.44678  -0.43617  -0.43242
 Alpha  occ. eigenvalues --   -0.42885  -0.42182  -0.42012  -0.41907  -0.41535
 Alpha  occ. eigenvalues --   -0.40913  -0.40810  -0.40159  -0.39891  -0.39578
 Alpha  occ. eigenvalues --   -0.39408  -0.38868  -0.38509  -0.38316  -0.38010
 Alpha  occ. eigenvalues --   -0.37420  -0.37081  -0.36883  -0.36220  -0.34948
 Alpha  occ. eigenvalues --   -0.34321  -0.34049  -0.33283  -0.30401  -0.29483
 Alpha  occ. eigenvalues --   -0.29022  -0.28695  -0.28002  -0.25766  -0.24824
 Alpha virt. eigenvalues --   -0.01474   0.00331   0.03766   0.04498   0.10191
 Alpha virt. eigenvalues --    0.10797   0.11338   0.11564   0.12376   0.13420
 Alpha virt. eigenvalues --    0.13806   0.14153   0.15117   0.15401   0.15432

 Mulliken charges:
               1
     1  C   -0.306387
     2  C   -0.306231
     3  C   -0.311268
     4  C   -0.065901
     5  C    0.073059
     6  C   -0.306943
     7  H    0.170808
     8  H    0.162021
     9  H    0.163481
    10  H    0.151097
    11  H    0.161378
    12  H    0.209045
    13  H    0.163746
    14  H    0.186884
    15  H    0.159640
    16  H    0.155359
    17  N   -0.429799
    18  C    0.092824
    19  C    0.092927
    20  C   -0.221501
    21  H    0.207067
    22  C   -0.226663
    23  H    0.251868
    24  C    0.430743
    25  H    0.191712
    26  H    0.208850
    27  N   -0.521507
    28  C   -0.160523
    29  H    0.175358
    30  H    0.202738
    31  C   -0.147002
    32  H    0.168336
    33  H    0.199461
    34  N   -0.820747
    35  S    1.247050
    36  O   -0.616941
    37  O   -0.631539
    38  C    0.058380
    39  C   -0.191675
    40  C   -0.190047
    41  C   -0.175514
    42  C   -0.161578
    43  C   -0.205470
    44  H    0.207439
    45  H    0.134592
    46  H    0.152588
    47  H    0.157158
    48  H    0.154469
    49  O   -0.712377
    50  H    0.466850
    51  C    0.683693
    52  O   -0.548036
    53  O   -0.652426
    54  H    0.467765
    55  C   -0.361014
    56  H    0.192199
    57  H    0.159117
    58  C   -0.033391
    59  H    0.094670
    60  H    0.110932
    61  C   -0.671901
    62  H    0.263325
    63  H    0.194282
    64  H    0.212989
    65  C   -0.291697
    66  H    0.142289
    67  H    0.164891
    68  C   -0.479237
    69  H    0.156481
    70  H    0.158274
    71  H    0.149282
    72  C   -0.334759
    73  H    0.184838
    74  H    0.167249
    75  C   -0.335948
    76  H    0.187124
    77  H    0.171696
 Sum of Mulliken charges =  -0.00000

 Dipole moment (field-independent basis, Debye):
    X=              0.1059    Y=             -1.8143    Z=             -6.2864  Tot=              6.5438
 Quadrupole moment (field-independent basis, Debye-Ang):
   XX=           -200.8014   YY=           -225.5470   ZZ=           -220.4362
   XY=            -11.2695   XZ=             -1.2293   YZ=             11.0120

 Normal termination of Gaussian 16 at Thu Feb  7 19:39:15 2019.
