 Gaussian 16, Revision A.03,
 Gaussian 16:  ES64L-G16RevA.03 25-Dec-2016

 ------------------------------------------
 #p M062X/6-31G* em=gd3 force int=ultrafine
 ------------------------------------------

 -----
 Title
 -----
 Symbolic Z-matrix:
 Charge =  0 Multiplicity = 1

                         Standard orientation:
 ---------------------------------------------------------------------
 Center     Atomic      Atomic             Coordinates (Angstroms)
 Number     Number       Type             X           Y           Z
 ---------------------------------------------------------------------
      1          6           0       -4.841081    0.473099   -0.534914
      2          6           0       -5.031732   -0.842711   -1.295539
      3          6           0       -3.704254   -1.325634   -1.891887
      4          6           0       -2.691624   -1.499992   -0.765284
      5          6           0       -2.463010   -0.162014   -0.019417
      6          6           0       -3.785589    0.341621    0.567972
      7          1           0       -3.829072   -2.267300   -2.436957
      8          1           0       -5.422294   -1.609848   -0.614065
      9          1           0       -5.769526   -0.719730   -2.094608
     10          1           0       -4.525382    1.252883   -1.240990
     11          1           0       -5.792954    0.797311   -0.101956
     12          1           0       -3.068687   -2.238097   -0.050277
     13          1           0       -2.140870    0.570357   -0.770672
     14          1           0       -4.133966   -0.351034    1.341159
     15          1           0       -3.600703    1.313424    1.038636
     16          1           0       -3.352336   -0.568222   -2.605204
     17          7           0       -1.370922   -1.997454   -1.203188
     18          6           0       -0.690537   -1.353342   -2.189224
     19          6           0       -0.673115   -2.778818   -0.336605
     20          6           0        0.661664   -1.435870   -2.312638
     21          1           0       -1.284046   -0.738398   -2.854083
     22          6           0        0.680947   -2.897527   -0.386220
     23          1           0       -1.256866   -3.250876    0.446133
     24          6           0        1.422833   -2.129849   -1.324730
     25          1           0        1.147500   -0.895145   -3.113740
     26          1           0        1.169649   -3.479629    0.382018
     27          7           0        2.748222   -2.067545   -1.282488
     28          6           0        3.490536   -2.536724   -0.102203
     29          1           0        3.355939   -3.613205    0.035899
     30          1           0        3.118745   -1.984905    0.773375
     31          6           0        3.495522   -1.022575   -1.999886
     32          1           0        3.743205   -1.367249   -3.011619
     33          1           0        2.884987   -0.116993   -2.041245
     34          7           0       -1.348506   -0.221643    0.914321
     35         16           0       -1.364466   -1.044442    2.328207
     36          8           0       -2.599158   -1.832302    2.367478
     37          8           0       -0.092533   -1.752738    2.480011
     38          6           0       -0.533253    2.644124   -0.085524
     39          6           0       -0.059973    2.080046   -1.280132
     40          6           0       -0.824199    2.142096   -2.444751
     41          6           0       -2.074900    2.759209   -2.449426
     42          6           0       -2.556085    3.320712   -1.269090
     43          6           0       -1.788082    3.261493   -0.106063
     44          1           0        0.884467    1.544169   -1.256787
     45          1           0       -0.431510    1.709021   -3.362845
     46          1           0       -2.662925    2.809637   -3.361731
     47          1           0       -3.526442    3.809354   -1.252936
     48          1           0       -2.173063    3.709427    0.807994
     49          8           0        0.744566    1.503311    1.779535
     50          1           0       -0.391076    0.027870    0.597182
     51          6           0        1.953047    0.799680    1.198466
     52          8           0        1.628864    0.189684    0.087761
     53          8           0        2.286746   -0.073345    2.263334
     54          1           0        1.582699   -0.746756    2.261166
     55          6           0        3.121402    1.814914    1.151415
     56          1           0        3.000868    2.529521    1.976101
     57          1           0        4.032006    1.248280    1.383960
     58          6           0        0.280115    2.695556    1.212117
     59          1           0       -0.374038    3.146567    1.970941
     60          1           0        1.108836    3.405489    1.069597
     61          6           0       -1.412223    0.200413    3.595584
     62          1           0       -0.521697    0.817477    3.444554
     63          1           0       -2.330403    0.777503    3.474398
     64          1           0       -1.396046   -0.310993    4.559578
     65          6           0        3.327303    2.554440   -0.168253
     66          1           0        3.544882    1.827653   -0.959992
     67          1           0        2.410661    3.063083   -0.486241
     68          6           0        4.459469    3.575668   -0.066041
     69          1           0        4.635009    4.089247   -1.016362
     70          1           0        4.226669    4.336465    0.687591
     71          1           0        5.396075    3.093924    0.236867
     72          6           0        4.928417   -2.150469   -0.427794
     73          1           0        5.543779   -2.078293    0.470703
     74          1           0        5.377693   -2.888389   -1.101940
     75          6           0        4.739967   -0.807616   -1.135137
     76          1           0        4.507274   -0.042773   -0.389070
     77          1           0        5.605576   -0.489729   -1.720104
 ---------------------------------------------------------------------

 SCF Done:  E(RM062X) =  -1991.35700967     A.U. after   15 cycles

 The electronic state is 1-A.
 Alpha  occ. eigenvalues --  -90.14586 -19.62160 -19.62073 -19.58482 -19.56639
 Alpha  occ. eigenvalues --  -19.50716 -14.85288 -14.80298 -14.76571 -10.63349
 Alpha  occ. eigenvalues --  -10.62767 -10.62256 -10.61996 -10.60974 -10.59693
 Alpha  occ. eigenvalues --  -10.58143 -10.57943 -10.57847 -10.57162 -10.56887
 Alpha  occ. eigenvalues --  -10.56842 -10.55898 -10.55813 -10.54997 -10.54926
 Alpha  occ. eigenvalues --  -10.54907 -10.54806 -10.54652 -10.54554 -10.54499
 Alpha  occ. eigenvalues --  -10.54440 -10.54361 -10.52960 -10.51236 -10.51185
 Alpha  occ. eigenvalues --  -10.49465  -8.45560  -6.37784  -6.37749  -6.37595
 Alpha  occ. eigenvalues --   -1.22383  -1.13631  -1.13154  -1.10632  -1.09191
 Alpha  occ. eigenvalues --   -1.05715  -1.02229  -0.99167  -0.95869  -0.95021
 Alpha  occ. eigenvalues --   -0.93564  -0.90308  -0.88732  -0.86250  -0.85469
 Alpha  occ. eigenvalues --   -0.84858  -0.84788  -0.84021  -0.83084  -0.82949
 Alpha  occ. eigenvalues --   -0.76695  -0.76016  -0.75755  -0.74224  -0.73080
 Alpha  occ. eigenvalues --   -0.71781  -0.68276  -0.68141  -0.67890  -0.67423
 Alpha  occ. eigenvalues --   -0.66594  -0.65380  -0.64812  -0.63510  -0.60501
 Alpha  occ. eigenvalues --   -0.60350  -0.59649  -0.59544  -0.57740  -0.57713
 Alpha  occ. eigenvalues --   -0.57290  -0.56489  -0.55826  -0.55137  -0.54276
 Alpha  occ. eigenvalues --   -0.53613  -0.52872  -0.52621  -0.52479  -0.51971
 Alpha  occ. eigenvalues --   -0.51612  -0.50901  -0.50428  -0.49931  -0.49389
 Alpha  occ. eigenvalues --   -0.49123  -0.48975  -0.48250  -0.48121  -0.47852
 Alpha  occ. eigenvalues --   -0.47782  -0.47558  -0.47071  -0.46268  -0.46004
 Alpha  occ. eigenvalues --   -0.45046  -0.44765  -0.44269  -0.43808  -0.43277
 Alpha  occ. eigenvalues --   -0.42594  -0.42195  -0.41206  -0.41148  -0.40967
 Alpha  occ. eigenvalues --   -0.40791  -0.40553  -0.39966  -0.39791  -0.39270
 Alpha  occ. eigenvalues --   -0.39200  -0.39075  -0.38398  -0.38212  -0.37794
 Alpha  occ. eigenvalues --   -0.37300  -0.36635  -0.36432  -0.35977  -0.34955
 Alpha  occ. eigenvalues --   -0.34431  -0.34130  -0.31820  -0.31225  -0.29814
 Alpha  occ. eigenvalues --   -0.28889  -0.28606  -0.27731  -0.24259  -0.24029
 Alpha virt. eigenvalues --   -0.01438   0.00392   0.03462   0.03712   0.10120
 Alpha virt. eigenvalues --    0.10732   0.11466   0.12397   0.13161   0.13313
 Alpha virt. eigenvalues --    0.14177   0.14356   0.14741   0.15336   0.15577

 Mulliken charges:
               1
     1  C   -0.306383
     2  C   -0.307517
     3  C   -0.309909
     4  C   -0.058958
     5  C    0.055726
     6  C   -0.309824
     7  H    0.174939
     8  H    0.163078
     9  H    0.166438
    10  H    0.150819
    11  H    0.164643
    12  H    0.207509
    13  H    0.175208
    14  H    0.194966
    15  H    0.163493
    16  H    0.155634
    17  N   -0.434546
    18  C    0.070799
    19  C    0.067348
    20  C   -0.203538
    21  H    0.205331
    22  C   -0.211858
    23  H    0.243653
    24  C    0.448014
    25  H    0.192508
    26  H    0.210988
    27  N   -0.522862
    28  C   -0.168782
    29  H    0.168458
    30  H    0.225914
    31  C   -0.151136
    32  H    0.162850
    33  H    0.206298
    34  N   -0.804062
    35  S    1.247869
    36  O   -0.606222
    37  O   -0.598999
    38  C    0.071647
    39  C   -0.191858
    40  C   -0.191096
    41  C   -0.172585
    42  C   -0.164672
    43  C   -0.209497
    44  H    0.222380
    45  H    0.140266
    46  H    0.155036
    47  H    0.158546
    48  H    0.152287
    49  O   -0.563369
    50  H    0.441364
    51  C    0.719546
    52  O   -0.715611
    53  O   -0.713980
    54  H    0.437695
    55  C   -0.338465
    56  H    0.146117
    57  H    0.150162
    58  C   -0.085319
    59  H    0.135946
    60  H    0.149909
    61  C   -0.664394
    62  H    0.276535
    63  H    0.198101
    64  H    0.219526
    65  C   -0.288337
    66  H    0.135203
    67  H    0.143808
    68  C   -0.473782
    69  H    0.148128
    70  H    0.151880
    71  H    0.147258
    72  C   -0.333066
    73  H    0.186196
    74  H    0.161517
    75  C   -0.341181
    76  H    0.201317
    77  H    0.168958
 Sum of Mulliken charges =  -0.00000

 Dipole moment (field-independent basis, Debye):
    X=             -3.1720    Y=             -2.1569    Z=             -6.0437  Tot=              7.1583
 Quadrupole moment (field-independent basis, Debye-Ang):
   XX=           -207.2102   YY=           -221.6873   ZZ=           -219.8575
   XY=            -12.8764   XZ=             -4.5795   YZ=             10.3320

 Normal termination of Gaussian 16 at Thu Feb  7 12:20:34 2019.
