 Gaussian 16, Revision A.03,
 Gaussian 16:  ES64L-G16RevA.03 25-Dec-2016

 ------------------------------------------
 #p M062X/6-31G* em=gd3 force int=ultrafine
 ------------------------------------------

 -----
 Title
 -----
 Symbolic Z-matrix:
 Charge =  0 Multiplicity = 1

                         Standard orientation:
 ---------------------------------------------------------------------
 Center     Atomic      Atomic             Coordinates (Angstroms)
 Number     Number       Type             X           Y           Z
 ---------------------------------------------------------------------
      1          6           0       -4.853585    0.480548   -0.543873
      2          6           0       -5.036836   -0.833407   -1.309407
      3          6           0       -3.704452   -1.312806   -1.897640
      4          6           0       -2.698340   -1.489812   -0.765342
      5          6           0       -2.479715   -0.154248   -0.012918
      6          6           0       -3.806849    0.345715    0.566619
      7          1           0       -3.824201   -2.252567   -2.447075
      8          1           0       -5.431360   -1.602732   -0.632712
      9          1           0       -5.768886   -0.709346   -2.113555
     10          1           0       -4.531986    1.262573   -1.244947
     11          1           0       -5.809064    0.803327   -0.117934
     12          1           0       -3.077961   -2.232169   -0.055940
     13          1           0       -2.152571    0.581357   -0.758876
     14          1           0       -4.159805   -0.350017    1.335035
     15          1           0       -3.625692    1.315822    1.042397
     16          1           0       -3.348708   -0.552220   -2.605636
     17          7           0       -1.374351   -1.983044   -1.198291
     18          6           0       -0.692753   -1.342773   -2.186049
     19          6           0       -0.677865   -2.765740   -0.331848
     20          6           0        0.658849   -1.431539   -2.312315
     21          1           0       -1.284668   -0.726732   -2.851134
     22          6           0        0.675561   -2.890181   -0.384047
     23          1           0       -1.262114   -3.236307    0.451356
     24          6           0        1.419725   -2.129252   -1.326705
     25          1           0        1.145195   -0.894054   -3.115327
     26          1           0        1.162984   -3.474714    0.383158
     27          7           0        2.745671   -2.078081   -1.290024
     28          6           0        3.486561   -2.551564   -0.110258
     29          1           0        3.348387   -3.627824    0.026352
     30          1           0        3.116479   -1.999209    0.765585
     31          6           0        3.500719   -1.040088   -2.010361
     32          1           0        3.752077   -1.392504   -3.018558
     33          1           0        2.895921   -0.131256   -2.059092
     34          7           0       -1.372757   -0.214026    0.928878
     35         16           0       -1.382624   -1.044145    2.338780
     36          8           0       -2.619317   -1.828428    2.376046
     37          8           0       -0.111394   -1.754526    2.482857
     38          6           0       -0.527431    2.642916   -0.092090
     39          6           0       -0.053544    2.066318   -1.280006
     40          6           0       -0.812035    2.129680   -2.448570
     41          6           0       -2.056708    2.758597   -2.462042
     42          6           0       -2.538276    3.331624   -1.287084
     43          6           0       -1.776259    3.272224   -0.120255
     44          1           0        0.886654    1.521860   -1.246338
     45          1           0       -0.419686    1.688148   -3.362768
     46          1           0       -2.640230    2.809364   -3.377213
     47          1           0       -3.504337    3.828940   -1.278583
     48          1           0       -2.161007    3.728295    0.789889
     49          8           0        0.741080    1.475504    1.753463
     50          1           0       -0.423806    0.069615    0.631634
     51          6           0        1.978650    0.790906    1.188636
     52          8           0        1.689366    0.188527    0.068304
     53          8           0        2.294118   -0.085161    2.256364
     54          1           0        1.588361   -0.756404    2.242357
     55          6           0        3.132077    1.822616    1.173540
     56          1           0        2.988499    2.532168    1.998903
     57          1           0        4.046006    1.266164    1.417772
     58          6           0        0.280547    2.679783    1.208291
     59          1           0       -0.375955    3.120058    1.971903
     60          1           0        1.110225    3.390898    1.079107
     61          6           0       -1.420208    0.197039    3.610070
     62          1           0       -0.529684    0.812963    3.453409
     63          1           0       -2.338903    0.775068    3.498284
     64          1           0       -1.395421   -0.316424    4.572824
     65          6           0        3.347737    2.566832   -0.142018
     66          1           0        3.580067    1.841672   -0.930976
     67          1           0        2.429401    3.066483   -0.470383
     68          6           0        4.469218    3.598194   -0.026559
     69          1           0        4.650085    4.114148   -0.974634
     70          1           0        4.222405    4.356455    0.725199
     71          1           0        5.406936    3.124413    0.285253
     72          6           0        4.925920   -2.168768   -0.433156
     73          1           0        5.539330   -2.098151    0.466833
     74          1           0        5.375328   -2.907464   -1.106418
     75          6           0        4.741154   -0.825440   -1.140255
     76          1           0        4.502227   -0.061616   -0.394921
     77          1           0        5.609508   -0.507279   -1.721060
 ---------------------------------------------------------------------

 SCF Done:  E(RM062X) =  -1991.35659366     A.U. after   15 cycles

 The electronic state is 1-A.
 Alpha  occ. eigenvalues --  -90.14697 -19.62271 -19.62147 -19.58466 -19.56652
 Alpha  occ. eigenvalues --  -19.50591 -14.85295 -14.80237 -14.76724 -10.63311
 Alpha  occ. eigenvalues --  -10.62746 -10.62243 -10.61963 -10.61035 -10.59783
 Alpha  occ. eigenvalues --  -10.58046 -10.57908 -10.57777 -10.57134 -10.56895
 Alpha  occ. eigenvalues --  -10.56880 -10.56025 -10.55853 -10.55046 -10.54944
 Alpha  occ. eigenvalues --  -10.54849 -10.54847 -10.54693 -10.54620 -10.54476
 Alpha  occ. eigenvalues --  -10.54384 -10.54380 -10.52956 -10.51172 -10.51104
 Alpha  occ. eigenvalues --  -10.49431  -8.45669  -6.37894  -6.37856  -6.37704
 Alpha  occ. eigenvalues --   -1.22484  -1.13615  -1.13053  -1.10729  -1.09117
 Alpha  occ. eigenvalues --   -1.05693  -1.02374  -0.99213  -0.95888  -0.95049
 Alpha  occ. eigenvalues --   -0.93563  -0.90282  -0.88705  -0.86357  -0.85391
 Alpha  occ. eigenvalues --   -0.84882  -0.84809  -0.83938  -0.83117  -0.83018
 Alpha  occ. eigenvalues --   -0.76682  -0.75955  -0.75715  -0.74210  -0.73167
 Alpha  occ. eigenvalues --   -0.71802  -0.68254  -0.68145  -0.67854  -0.67481
 Alpha  occ. eigenvalues --   -0.66539  -0.65435  -0.64797  -0.63485  -0.60498
 Alpha  occ. eigenvalues --   -0.60322  -0.59744  -0.59574  -0.57794  -0.57689
 Alpha  occ. eigenvalues --   -0.57291  -0.56493  -0.55820  -0.55129  -0.54303
 Alpha  occ. eigenvalues --   -0.53615  -0.52961  -0.52657  -0.52463  -0.52001
 Alpha  occ. eigenvalues --   -0.51646  -0.50871  -0.50345  -0.49931  -0.49360
 Alpha  occ. eigenvalues --   -0.49141  -0.48993  -0.48300  -0.48122  -0.47877
 Alpha  occ. eigenvalues --   -0.47758  -0.47582  -0.47120  -0.46221  -0.45947
 Alpha  occ. eigenvalues --   -0.45102  -0.44824  -0.44302  -0.43816  -0.43273
 Alpha  occ. eigenvalues --   -0.42586  -0.42220  -0.41154  -0.41091  -0.40932
 Alpha  occ. eigenvalues --   -0.40731  -0.40533  -0.39961  -0.39826  -0.39308
 Alpha  occ. eigenvalues --   -0.39203  -0.39031  -0.38420  -0.38282  -0.37841
 Alpha  occ. eigenvalues --   -0.37283  -0.36587  -0.36411  -0.36038  -0.34969
 Alpha  occ. eigenvalues --   -0.34444  -0.34174  -0.31865  -0.31233  -0.29844
 Alpha  occ. eigenvalues --   -0.28929  -0.28644  -0.27746  -0.24123  -0.23959
 Alpha virt. eigenvalues --   -0.01394   0.00416   0.03409   0.03689   0.10123
 Alpha virt. eigenvalues --    0.10668   0.11407   0.12454   0.13178   0.13262
 Alpha virt. eigenvalues --    0.14133   0.14366   0.14773   0.15382   0.15568

 Mulliken charges:
               1
     1  C   -0.306416
     2  C   -0.307638
     3  C   -0.310287
     4  C   -0.058722
     5  C    0.056762
     6  C   -0.309200
     7  H    0.175209
     8  H    0.163112
     9  H    0.166670
    10  H    0.150982
    11  H    0.164904
    12  H    0.207080
    13  H    0.175668
    14  H    0.194773
    15  H    0.163398
    16  H    0.155951
    17  N   -0.435860
    18  C    0.072414
    19  C    0.069231
    20  C   -0.204618
    21  H    0.204893
    22  C   -0.213441
    23  H    0.243407
    24  C    0.448735
    25  H    0.192523
    26  H    0.210759
    27  N   -0.521645
    28  C   -0.168357
    29  H    0.167932
    30  H    0.225270
    31  C   -0.149735
    32  H    0.162152
    33  H    0.206067
    34  N   -0.800660
    35  S    1.246191
    36  O   -0.604880
    37  O   -0.596522
    38  C    0.066428
    39  C   -0.194046
    40  C   -0.191341
    41  C   -0.172640
    42  C   -0.165045
    43  C   -0.208253
    44  H    0.225380
    45  H    0.140490
    46  H    0.155208
    47  H    0.158712
    48  H    0.152537
    49  O   -0.569463
    50  H    0.439392
    51  C    0.719094
    52  O   -0.712792
    53  O   -0.711806
    54  H    0.435506
    55  C   -0.339035
    56  H    0.145215
    57  H    0.149930
    58  C   -0.084176
    59  H    0.134836
    60  H    0.151171
    61  C   -0.664624
    62  H    0.275661
    63  H    0.198833
    64  H    0.220307
    65  C   -0.287227
    66  H    0.136707
    67  H    0.142761
    68  C   -0.474003
    69  H    0.147946
    70  H    0.151217
    71  H    0.147461
    72  C   -0.333331
    73  H    0.185899
    74  H    0.161009
    75  C   -0.340520
    76  H    0.202472
    77  H    0.168025
 Sum of Mulliken charges =  -0.00000

 Dipole moment (field-independent basis, Debye):
    X=             -3.3490    Y=             -2.1114    Z=             -5.9506  Tot=              7.1473
 Quadrupole moment (field-independent basis, Debye-Ang):
   XX=           -207.6384   YY=           -221.6777   ZZ=           -219.5439
   XY=            -13.0016   XZ=             -4.4448   YZ=             10.4079

 Normal termination of Gaussian 16 at Thu Feb  7 11:52:51 2019.
