 Gaussian 16, Revision A.03,
 Gaussian 16:  ES64L-G16RevA.03 25-Dec-2016

 ------------------------------------------
 #p M062X/6-31G* em=gd3 force int=ultrafine
 ------------------------------------------

 -----
 Title
 -----
 Symbolic Z-matrix:
 Charge =  0 Multiplicity = 1

                         Standard orientation:
 ---------------------------------------------------------------------
 Center     Atomic      Atomic             Coordinates (Angstroms)
 Number     Number       Type             X           Y           Z
 ---------------------------------------------------------------------
      1          6           0       -4.784667    0.441032   -0.520980
      2          6           0       -4.985824   -0.851113   -1.318387
      3          6           0       -3.665926   -1.317562   -1.945006
      4          6           0       -2.645270   -1.526969   -0.832505
      5          6           0       -2.399613   -0.210602   -0.050624
      6          6           0       -3.715634    0.278080    0.564325
      7          1           0       -3.799655   -2.242789   -2.515639
      8          1           0       -5.368135   -1.638327   -0.655352
      9          1           0       -5.733740   -0.703469   -2.103716
     10          1           0       -4.477806    1.240845   -1.207628
     11          1           0       -5.730645    0.752670   -0.066310
     12          1           0       -3.021444   -2.281214   -0.134616
     13          1           0       -2.082711    0.541271   -0.784671
     14          1           0       -4.056228   -0.436663    1.321004
     15          1           0       -3.525052    1.236151    1.059637
     16          1           0       -3.320035   -0.540344   -2.639853
     17          7           0       -1.327827   -2.018021   -1.287878
     18          6           0       -0.644696   -1.337375   -2.246716
     19          6           0       -0.629324   -2.811272   -0.432205
     20          6           0        0.710904   -1.389745   -2.348204
     21          1           0       -1.239795   -0.717324   -2.905875
     22          6           0        0.727844   -2.899822   -0.458851
     23          1           0       -1.217253   -3.315004    0.327490
     24          6           0        1.467384   -2.085311   -1.357631
     25          1           0        1.199191   -0.820886   -3.127825
     26          1           0        1.215522   -3.491425    0.302796
     27          7           0        2.788874   -1.979365   -1.279026
     28          6           0        3.521969   -2.432315   -0.086932
     29          1           0        3.406231   -3.510768    0.051373
     30          1           0        3.126455   -1.888094    0.783331
     31          6           0        3.514640   -0.907754   -1.975265
     32          1           0        3.758849   -1.222925   -2.997161
     33          1           0        2.884149   -0.014822   -1.997083
     34          7           0       -1.276255   -0.308961    0.868191
     35         16           0       -1.323280   -1.154675    2.261509
     36          8           0       -2.528286   -1.990171    2.251885
     37          8           0       -0.033048   -1.823281    2.448394
     38          6           0       -0.593032    2.684359    0.021576
     39          6           0       -0.120859    2.190439   -1.204782
     40          6           0       -0.902748    2.279110   -2.355005
     41          6           0       -2.173415    2.853459   -2.314389
     42          6           0       -2.655673    3.342409   -1.103503
     43          6           0       -1.867606    3.258207    0.044673
     44          1           0        0.837687    1.684059   -1.225429
     45          1           0       -0.509363    1.901944   -3.296811
     46          1           0       -2.776508    2.925401   -3.215315
     47          1           0       -3.642242    3.794756   -1.050685
     48          1           0       -2.252458    3.653842    0.982656
     49          8           0        0.710856    1.546078    1.879999
     50          1           0       -0.297371   -0.062623    0.553242
     51          6           0        1.859275    0.821369    1.246089
     52          8           0        1.464054    0.212488    0.147805
     53          8           0        2.240450   -0.059935    2.286475
     54          1           0        1.547915   -0.745090    2.304064
     55          6           0        3.054749    1.802746    1.133062
     56          1           0        2.998656    2.519122    1.963784
     57          1           0        3.954231    1.203991    1.324892
     58          6           0        0.243310    2.734114    1.304336
     59          1           0       -0.391684    3.195900    2.071782
     60          1           0        1.075314    3.435346    1.140857
     61          6           0       -1.466273    0.059885    3.551502
     62          1           0       -0.595393    0.713362    3.449577
     63          1           0       -2.398230    0.607561    3.400759
     64          1           0       -1.474400   -0.468975    4.505989
     65          6           0        3.232283    2.539010   -0.191712
     66          1           0        3.295125    1.806801   -1.005204
     67          1           0        2.360173    3.159660   -0.424933
     68          6           0        4.482305    3.417555   -0.181596
     69          1           0        4.624753    3.934577   -1.135583
     70          1           0        4.415631    4.177708    0.605104
     71          1           0        5.379701    2.820205    0.017743
     72          6           0        4.957511   -2.024087   -0.397324
     73          1           0        5.561114   -1.937426    0.507884
     74          1           0        5.425309   -2.759878   -1.060784
     75          6           0        4.764376   -0.687631   -1.117603
     76          1           0        4.547477    0.089017   -0.379703
     77          1           0        5.627460   -0.379631   -1.711476
 ---------------------------------------------------------------------

 SCF Done:  E(RM062X) =  -1991.35841307     A.U. after   14 cycles

 The electronic state is 1-A.
 Alpha  occ. eigenvalues --  -90.14203 -19.61805 -19.61781 -19.58655 -19.56699
 Alpha  occ. eigenvalues --  -19.51236 -14.85180 -14.80445 -14.75814 -10.63422
 Alpha  occ. eigenvalues --  -10.62789 -10.62238 -10.62208 -10.60744 -10.59376
 Alpha  occ. eigenvalues --  -10.58429 -10.58003 -10.57961 -10.57170 -10.56884
 Alpha  occ. eigenvalues --  -10.56701 -10.55669 -10.55611 -10.55109 -10.54844
 Alpha  occ. eigenvalues --  -10.54816 -10.54803 -10.54729 -10.54578 -10.54401
 Alpha  occ. eigenvalues --  -10.54337 -10.54324 -10.53065 -10.51498 -10.51452
 Alpha  occ. eigenvalues --  -10.49694  -8.45180  -6.37397  -6.37374  -6.37216
 Alpha  occ. eigenvalues --   -1.22026  -1.13589  -1.13465  -1.10280  -1.09345
 Alpha  occ. eigenvalues --   -1.05858  -1.01772  -0.99313  -0.95757  -0.94992
 Alpha  occ. eigenvalues --   -0.93503  -0.90308  -0.88758  -0.85925  -0.85760
 Alpha  occ. eigenvalues --   -0.84822  -0.84717  -0.84226  -0.83058  -0.82711
 Alpha  occ. eigenvalues --   -0.76672  -0.76256  -0.75832  -0.74344  -0.72809
 Alpha  occ. eigenvalues --   -0.71660  -0.68329  -0.68224  -0.67939  -0.67220
 Alpha  occ. eigenvalues --   -0.66738  -0.65235  -0.64863  -0.63530  -0.60549
 Alpha  occ. eigenvalues --   -0.60404  -0.59776  -0.59058  -0.57806  -0.57604
 Alpha  occ. eigenvalues --   -0.57186  -0.56442  -0.55792  -0.55166  -0.54200
 Alpha  occ. eigenvalues --   -0.53558  -0.52661  -0.52468  -0.52449  -0.51900
 Alpha  occ. eigenvalues --   -0.51552  -0.51017  -0.50727  -0.49884  -0.49545
 Alpha  occ. eigenvalues --   -0.49160  -0.48843  -0.48207  -0.48139  -0.48000
 Alpha  occ. eigenvalues --   -0.47680  -0.47469  -0.46918  -0.46428  -0.46105
 Alpha  occ. eigenvalues --   -0.44882  -0.44739  -0.44152  -0.43864  -0.43265
 Alpha  occ. eigenvalues --   -0.42523  -0.42144  -0.41396  -0.41303  -0.41104
 Alpha  occ. eigenvalues --   -0.40905  -0.40489  -0.39993  -0.39804  -0.39298
 Alpha  occ. eigenvalues --   -0.39253  -0.39075  -0.38437  -0.37975  -0.37603
 Alpha  occ. eigenvalues --   -0.37389  -0.36746  -0.36558  -0.35756  -0.34909
 Alpha  occ. eigenvalues --   -0.34392  -0.33979  -0.31669  -0.31116  -0.29772
 Alpha  occ. eigenvalues --   -0.28872  -0.28603  -0.27656  -0.24819  -0.24396
 Alpha virt. eigenvalues --   -0.01528   0.00397   0.03548   0.03752   0.10135
 Alpha virt. eigenvalues --    0.10979   0.11648   0.12213   0.13169   0.13499
 Alpha virt. eigenvalues --    0.14217   0.14578   0.14760   0.15223   0.15601

 Mulliken charges:
               1
     1  C   -0.306281
     2  C   -0.307151
     3  C   -0.309220
     4  C   -0.060272
     5  C    0.056580
     6  C   -0.311417
     7  H    0.174029
     8  H    0.162855
     9  H    0.165550
    10  H    0.151021
    11  H    0.163404
    12  H    0.209085
    13  H    0.173150
    14  H    0.193136
    15  H    0.163616
    16  H    0.154303
    17  N   -0.430625
    18  C    0.067416
    19  C    0.063886
    20  C   -0.201721
    21  H    0.206418
    22  C   -0.209266
    23  H    0.245191
    24  C    0.445899
    25  H    0.192094
    26  H    0.211515
    27  N   -0.525972
    28  C   -0.170809
    29  H    0.169772
    30  H    0.229329
    31  C   -0.154797
    32  H    0.165550
    33  H    0.205972
    34  N   -0.815411
    35  S    1.253103
    36  O   -0.611856
    37  O   -0.606113
    38  C    0.084309
    39  C   -0.184544
    40  C   -0.189811
    41  C   -0.171255
    42  C   -0.163720
    43  C   -0.212080
    44  H    0.211804
    45  H    0.140530
    46  H    0.154912
    47  H    0.158592
    48  H    0.152478
    49  O   -0.551339
    50  H    0.448549
    51  C    0.724368
    52  O   -0.721671
    53  O   -0.717869
    54  H    0.444539
    55  C   -0.338426
    56  H    0.148667
    57  H    0.151117
    58  C   -0.090986
    59  H    0.139754
    60  H    0.147708
    61  C   -0.663332
    62  H    0.273871
    63  H    0.196321
    64  H    0.217596
    65  C   -0.292418
    66  H    0.135458
    67  H    0.146276
    68  C   -0.473277
    69  H    0.148920
    70  H    0.154346
    71  H    0.145106
    72  C   -0.331914
    73  H    0.187096
    74  H    0.162932
    75  C   -0.343122
    76  H    0.197498
    77  H    0.171053
 Sum of Mulliken charges =  -0.00000

 Dipole moment (field-independent basis, Debye):
    X=             -2.5835    Y=             -1.9414    Z=             -6.3443  Tot=              7.1199
 Quadrupole moment (field-independent basis, Debye-Ang):
   XX=           -205.7874   YY=           -222.7209   ZZ=           -219.9518
   XY=            -12.4119   XZ=             -5.2828   YZ=             10.0420

 Normal termination of Gaussian 16 at Thu Feb  7 14:38:12 2019.
