 Gaussian 16, Revision A.03,
 Gaussian 16:  ES64L-G16RevA.03 25-Dec-2016

 ------------------------------------------
 #p M062X/6-31G* em=gd3 force int=ultrafine
 ------------------------------------------

 -----
 Title
 -----
 Symbolic Z-matrix:
 Charge =  0 Multiplicity = 1

                         Standard orientation:
 ---------------------------------------------------------------------
 Center     Atomic      Atomic             Coordinates (Angstroms)
 Number     Number       Type             X           Y           Z
 ---------------------------------------------------------------------
      1          6           0       -4.841810    0.512687   -0.521151
      2          6           0       -5.008363   -0.755233   -1.363778
      3          6           0       -3.664265   -1.197723   -1.954789
      4          6           0       -2.677859   -1.447697   -0.818437
      5          6           0       -2.481188   -0.165276    0.025943
      6          6           0       -3.820123    0.308285    0.600522
      7          1           0       -3.773481   -2.100224   -2.565548
      8          1           0       -5.413300   -1.562292   -0.739165
      9          1           0       -5.725697   -0.586237   -2.172897
     10          1           0       -4.500462    1.332183   -1.168457
     11          1           0       -5.805774    0.815172   -0.099660
     12          1           0       -3.067131   -2.237752   -0.168183
     13          1           0       -2.125553    0.611876   -0.663291
     14          1           0       -4.188974   -0.428367    1.322791
     15          1           0       -3.643124    1.249234    1.134362
     16          1           0       -3.296655   -0.392639   -2.605190
     17          7           0       -1.344604   -1.909769   -1.261703
     18          6           0       -0.662675   -1.234458   -2.223727
     19          6           0       -0.647864   -2.726675   -0.428736
     20          6           0        0.688584   -1.325818   -2.360463
     21          1           0       -1.252895   -0.591016   -2.863217
     22          6           0        0.705213   -2.858752   -0.493703
     23          1           0       -1.231634   -3.231244    0.333327
     24          6           0        1.451446   -2.072688   -1.413993
     25          1           0        1.173298   -0.761008   -3.145708
     26          1           0        1.190917   -3.482025    0.243748
     27          7           0        2.779963   -2.044081   -1.391842
     28          6           0        3.521618   -2.576267   -0.238112
     29          1           0        3.381864   -3.657847   -0.153995
     30          1           0        3.152463   -2.070439    0.665085
     31          6           0        3.548924   -0.992119   -2.079178
     32          1           0        3.804614   -1.320501   -3.094375
     33          1           0        2.956938   -0.074762   -2.108067
     34          7           0       -1.396884   -0.315443    0.979335
     35         16           0       -1.433649   -1.219586    2.332847
     36          8           0       -2.646741   -2.039822    2.283797
     37          8           0       -0.147913   -1.904150    2.480990
     38          6           0       -0.581363    2.709130   -0.062771
     39          6           0       -0.058497    2.080369   -1.200370
     40          6           0       -0.739107    2.154776   -2.414927
     41          6           0       -1.959611    2.823837   -2.510342
     42          6           0       -2.493809    3.433870   -1.376777
     43          6           0       -1.803509    3.378765   -0.166094
     44          1           0        0.858129    1.498314   -1.094619
     45          1           0       -0.310705    1.685918   -3.298731
     46          1           0       -2.486716    2.875809   -3.458922
     47          1           0       -3.445654    3.954571   -1.435614
     48          1           0       -2.225277    3.858354    0.715058
     49          8           0        0.592908    1.365252    1.624946
     50          1           0       -0.557170    0.311859    0.961031
     51          6           0        2.067131    0.722868    1.199826
     52          8           0        1.968866    0.180064    0.051668
     53          8           0        2.212750   -0.141051    2.290266
     54          1           0        1.546175   -0.841740    2.166538
     55          6           0        3.081693    1.859068    1.387057
     56          1           0        2.780447    2.500284    2.223970
     57          1           0        4.019466    1.378245    1.696560
     58          6           0        0.154777    2.641798    1.269601
     59          1           0       -0.536553    2.999832    2.051090
     60          1           0        0.987392    3.362248    1.257393
     61          6           0       -1.520197   -0.040534    3.663087
     62          1           0       -0.655353    0.616973    3.527213
     63          1           0       -2.460315    0.507093    3.580491
     64          1           0       -1.462352   -0.585754    4.606296
     65          6           0        3.335797    2.673785    0.121860
     66          1           0        3.698969    1.999787   -0.662450
     67          1           0        2.398634    3.089573   -0.266577
     68          6           0        4.337112    3.801469    0.358287
     69          1           0        4.534258    4.367891   -0.557082
     70          1           0        3.963907    4.503078    1.112759
     71          1           0        5.291854    3.406557    0.723149
     72          6           0        4.962639   -2.180032   -0.538022
     73          1           0        5.570834   -2.145941    0.367771
     74          1           0        5.416232   -2.892435   -1.236256
     75          6           0        4.784348   -0.810443   -1.194888
     76          1           0        4.536926   -0.072771   -0.426271
     77          1           0        5.657303   -0.475730   -1.759314
 ---------------------------------------------------------------------

 SCF Done:  E(RM062X) =  -1991.35535262     A.U. after   15 cycles

 The electronic state is 1-A.
 Alpha  occ. eigenvalues --  -90.14496 -19.62210 -19.61875 -19.57821 -19.57674
 Alpha  occ. eigenvalues --  -19.51618 -14.85189 -14.80137 -14.75962 -10.63213
 Alpha  occ. eigenvalues --  -10.62666 -10.62629 -10.62137 -10.60995 -10.59681
 Alpha  occ. eigenvalues --  -10.57930 -10.57842 -10.57794 -10.57007 -10.56807
 Alpha  occ. eigenvalues --  -10.56739 -10.56279 -10.55796 -10.55042 -10.54991
 Alpha  occ. eigenvalues --  -10.54966 -10.54831 -10.54823 -10.54593 -10.54585
 Alpha  occ. eigenvalues --  -10.54291 -10.54216 -10.53093 -10.51185 -10.51105
 Alpha  occ. eigenvalues --  -10.49865  -8.45478  -6.37703  -6.37650  -6.37532
 Alpha  occ. eigenvalues --   -1.22308  -1.13449  -1.12827  -1.10503  -1.08968
 Alpha  occ. eigenvalues --   -1.05811  -1.02093  -1.01183  -0.95778  -0.95104
 Alpha  occ. eigenvalues --   -0.93474  -0.90132  -0.88608  -0.86386  -0.85566
 Alpha  occ. eigenvalues --   -0.84806  -0.84686  -0.83864  -0.83248  -0.82920
 Alpha  occ. eigenvalues --   -0.76587  -0.76217  -0.75603  -0.73778  -0.73107
 Alpha  occ. eigenvalues --   -0.71707  -0.68213  -0.68076  -0.67798  -0.67424
 Alpha  occ. eigenvalues --   -0.66406  -0.65407  -0.64822  -0.63343  -0.60487
 Alpha  occ. eigenvalues --   -0.60318  -0.59910  -0.59361  -0.57921  -0.57673
 Alpha  occ. eigenvalues --   -0.57190  -0.56344  -0.55556  -0.54909  -0.54283
 Alpha  occ. eigenvalues --   -0.53509  -0.52936  -0.52574  -0.52313  -0.51974
 Alpha  occ. eigenvalues --   -0.51597  -0.50937  -0.50211  -0.49995  -0.49468
 Alpha  occ. eigenvalues --   -0.49179  -0.48883  -0.48482  -0.48163  -0.48073
 Alpha  occ. eigenvalues --   -0.47723  -0.47549  -0.47079  -0.46452  -0.45932
 Alpha  occ. eigenvalues --   -0.45325  -0.45158  -0.44431  -0.44174  -0.43182
 Alpha  occ. eigenvalues --   -0.42470  -0.42303  -0.41233  -0.41012  -0.40806
 Alpha  occ. eigenvalues --   -0.40564  -0.40426  -0.40142  -0.39948  -0.39470
 Alpha  occ. eigenvalues --   -0.39057  -0.39001  -0.38687  -0.38189  -0.37682
 Alpha  occ. eigenvalues --   -0.37490  -0.36631  -0.36451  -0.35910  -0.35041
 Alpha  occ. eigenvalues --   -0.34669  -0.34289  -0.32132  -0.31011  -0.29899
 Alpha  occ. eigenvalues --   -0.28982  -0.28682  -0.27854  -0.25018  -0.24463
 Alpha virt. eigenvalues --   -0.01267   0.00551   0.03280   0.03721   0.10207
 Alpha virt. eigenvalues --    0.10664   0.11425   0.12489   0.13212   0.13338
 Alpha virt. eigenvalues --    0.14193   0.14401   0.15132   0.15520   0.15556

 Mulliken charges:
               1
     1  C   -0.306682
     2  C   -0.307697
     3  C   -0.311620
     4  C   -0.061592
     5  C    0.066333
     6  C   -0.306840
     7  H    0.174887
     8  H    0.163118
     9  H    0.166469
    10  H    0.152229
    11  H    0.164475
    12  H    0.208379
    13  H    0.173537
    14  H    0.190998
    15  H    0.159990
    16  H    0.156758
    17  N   -0.436402
    18  C    0.083150
    19  C    0.083840
    20  C   -0.213127
    21  H    0.203268
    22  C   -0.222972
    23  H    0.245231
    24  C    0.447383
    25  H    0.192157
    26  H    0.209518
    27  N   -0.519382
    28  C   -0.162844
    29  H    0.168345
    30  H    0.217783
    31  C   -0.145482
    32  H    0.161516
    33  H    0.204940
    34  N   -0.815948
    35  S    1.237693
    36  O   -0.605799
    37  O   -0.595018
    38  C    0.050058
    39  C   -0.198722
    40  C   -0.192561
    41  C   -0.172994
    42  C   -0.164753
    43  C   -0.205530
    44  H    0.234122
    45  H    0.140204
    46  H    0.155816
    47  H    0.159560
    48  H    0.154431
    49  O   -0.620958
    50  H    0.453734
    51  C    0.708020
    52  O   -0.665560
    53  O   -0.694052
    54  H    0.437212
    55  C   -0.338120
    56  H    0.148776
    57  H    0.150712
    58  C   -0.071563
    59  H    0.124535
    60  H    0.151258
    61  C   -0.667448
    62  H    0.265104
    63  H    0.200075
    64  H    0.222831
    65  C   -0.286086
    66  H    0.143476
    67  H    0.142987
    68  C   -0.475548
    69  H    0.149175
    70  H    0.149732
    71  H    0.148759
    72  C   -0.334683
    73  H    0.184346
    74  H    0.161075
    75  C   -0.338246
    76  H    0.204746
    77  H    0.165486
 Sum of Mulliken charges =  -0.00000

 Dipole moment (field-independent basis, Debye):
    X=             -3.1320    Y=             -1.5561    Z=             -5.7900  Tot=              6.7642
 Quadrupole moment (field-independent basis, Debye-Ang):
   XX=           -207.1669   YY=           -223.3502   ZZ=           -218.1806
   XY=            -13.5806   XZ=             -4.2940   YZ=             10.7605

 Normal termination of Gaussian 16 at Thu Feb  7 08:42:50 2019.
