 Gaussian 16, Revision A.03,
 Gaussian 16:  ES64L-G16RevA.03 25-Dec-2016

 ------------------------------------------
 #p M062X/6-31G* em=gd3 force int=ultrafine
 ------------------------------------------

 -----
 Title
 -----
 Symbolic Z-matrix:
 Charge =  0 Multiplicity = 1

                         Standard orientation:
 ---------------------------------------------------------------------
 Center     Atomic      Atomic             Coordinates (Angstroms)
 Number     Number       Type             X           Y           Z
 ---------------------------------------------------------------------
      1          6           0       -4.853410    0.354543   -0.492651
      2          6           0       -4.982801   -0.919120   -1.333551
      3          6           0       -3.627238   -1.323923   -1.926520
      4          6           0       -2.635902   -1.535320   -0.788113
      5          6           0       -2.462779   -0.244766    0.057666
      6          6           0       -3.822200    0.183717    0.626366
      7          1           0       -3.713309   -2.230116   -2.536547
      8          1           0       -5.359729   -1.736280   -0.704757
      9          1           0       -5.707376   -0.775560   -2.141638
     10          1           0       -4.537500    1.181463   -1.144523
     11          1           0       -5.827680    0.630293   -0.075325
     12          1           0       -2.991989   -2.335178   -0.131106
     13          1           0       -2.169557    0.535031   -0.662512
     14          1           0       -4.163031   -0.559295    1.357273
     15          1           0       -3.673591    1.132874    1.155761
     16          1           0       -3.286647   -0.508935   -2.580088
     17          7           0       -1.283783   -1.953774   -1.232888
     18          6           0       -0.630838   -1.268650   -2.201320
     19          6           0       -0.561266   -2.734032   -0.393813
     20          6           0        0.724863   -1.329717   -2.352997
     21          1           0       -1.242012   -0.640447   -2.836377
     22          6           0        0.797794   -2.843809   -0.480965
     23          1           0       -1.122582   -3.234890    0.387566
     24          6           0        1.511875   -2.062001   -1.420565
     25          1           0        1.186202   -0.758018   -3.147702
     26          1           0        1.302664   -3.442600    0.264016
     27          7           0        2.851366   -1.998939   -1.411262
     28          6           0        3.609236   -2.502844   -0.257224
     29          1           0        3.516996   -3.589140   -0.174884
     30          1           0        3.217447   -2.038632    0.658722
     31          6           0        3.584371   -0.923836   -2.101631
     32          1           0        3.854899   -1.242403   -3.115243
     33          1           0        2.964397   -0.024965   -2.150746
     34          7           0       -1.352261   -0.335071    0.971103
     35         16           0       -1.375083   -1.223544    2.281310
     36          8           0       -2.491367   -2.191219    2.318273
     37          8           0       -0.018491   -1.800211    2.478555
     38          6           0       -0.784556    2.784917   -0.076842
     39          6           0       -0.192704    2.136979   -1.169230
     40          6           0       -0.831076    2.145943   -2.408030
     41          6           0       -2.075045    2.759874   -2.563440
     42          6           0       -2.675701    3.380765   -1.471287
     43          6           0       -2.025912    3.393963   -0.240406
     44          1           0        0.742035    1.595420   -1.032707
     45          1           0       -0.359026    1.664329   -3.262198
     46          1           0       -2.575236    2.753502   -3.527147
     47          1           0       -3.649048    3.851107   -1.570294
     48          1           0       -2.489067    3.869492    0.620621
     49          8           0        0.292620    1.526204    1.684639
     50          1           0       -0.329745    0.822712    1.287074
     51          6           0        2.418146    0.565414    1.167262
     52          8           0        2.094686    0.158922    0.067393
     53          8           0        2.272400   -0.143364    2.283775
     54          1           0        1.535403   -0.798446    2.176408
     55          6           0        3.142599    1.874839    1.387685
     56          1           0        2.612005    2.414068    2.179744
     57          1           0        4.135200    1.635124    1.791438
     58          6           0       -0.134217    2.788609    1.288979
     59          1           0       -0.841515    3.216314    2.017069
     60          1           0        0.750031    3.443488    1.283699
     61          6           0       -1.553792   -0.084783    3.654541
     62          1           0       -0.744846    0.641589    3.545430
     63          1           0       -2.524813    0.408845    3.581577
     64          1           0       -1.462315   -0.634410    4.592054
     65          6           0        3.277732    2.724180    0.124964
     66          1           0        3.664339    2.103326   -0.691623
     67          1           0        2.290422    3.065575   -0.207925
     68          6           0        4.193228    3.926529    0.345654
     69          1           0        4.331465    4.500705   -0.575101
     70          1           0        3.784172    4.603180    1.103521
     71          1           0        5.181169    3.602985    0.690892
     72          6           0        5.035877   -2.044594   -0.543256
     73          1           0        5.633625   -1.976637    0.367925
     74          1           0        5.525624   -2.743742   -1.228706
     75          6           0        4.817673   -0.691355   -1.222970
     76          1           0        4.574266    0.061616   -0.468305
     77          1           0        5.679791   -0.343932   -1.795893
 ---------------------------------------------------------------------

 SCF Done:  E(RM062X) =  -1991.37842092     A.U. after   15 cycles

 The electronic state is 1-A.
 Alpha  occ. eigenvalues --  -90.10223 -19.63676 -19.60196 -19.58297 -19.58277
 Alpha  occ. eigenvalues --  -19.58228 -14.84801 -14.80401 -14.69226 -10.65970
 Alpha  occ. eigenvalues --  -10.63216 -10.62450 -10.61679 -10.59277 -10.59041
 Alpha  occ. eigenvalues --  -10.58847 -10.57829 -10.57237 -10.56770 -10.56724
 Alpha  occ. eigenvalues --  -10.55909 -10.55676 -10.55638 -10.55128 -10.55056
 Alpha  occ. eigenvalues --  -10.54960 -10.54635 -10.54621 -10.54516 -10.54015
 Alpha  occ. eigenvalues --  -10.53695 -10.53640 -10.53611 -10.53207 -10.53008
 Alpha  occ. eigenvalues --  -10.52619  -8.41170  -6.33407  -6.33317  -6.33240
 Alpha  occ. eigenvalues --   -1.19331  -1.17667  -1.12928  -1.10137  -1.09912
 Alpha  occ. eigenvalues --   -1.09042  -1.05980  -0.97631  -0.95403  -0.94745
 Alpha  occ. eigenvalues --   -0.92212  -0.89815  -0.88575  -0.88461  -0.85108
 Alpha  occ. eigenvalues --   -0.84784  -0.83755  -0.83581  -0.83280  -0.79962
 Alpha  occ. eigenvalues --   -0.79504  -0.76303  -0.75600  -0.74624  -0.70968
 Alpha  occ. eigenvalues --   -0.70341  -0.69446  -0.68648  -0.68355  -0.68131
 Alpha  occ. eigenvalues --   -0.66057  -0.64780  -0.63920  -0.63554  -0.61623
 Alpha  occ. eigenvalues --   -0.60305  -0.59397  -0.59153  -0.58357  -0.56201
 Alpha  occ. eigenvalues --   -0.55864  -0.55344  -0.55190  -0.54639  -0.53947
 Alpha  occ. eigenvalues --   -0.53498  -0.53056  -0.52668  -0.51795  -0.51625
 Alpha  occ. eigenvalues --   -0.51065  -0.50947  -0.50643  -0.49982  -0.49890
 Alpha  occ. eigenvalues --   -0.49778  -0.49516  -0.48752  -0.48316  -0.48065
 Alpha  occ. eigenvalues --   -0.47641  -0.47289  -0.47106  -0.47011  -0.45776
 Alpha  occ. eigenvalues --   -0.45474  -0.45140  -0.44011  -0.43796  -0.43504
 Alpha  occ. eigenvalues --   -0.43208  -0.42847  -0.42127  -0.41910  -0.41774
 Alpha  occ. eigenvalues --   -0.41260  -0.40928  -0.40513  -0.39903  -0.39705
 Alpha  occ. eigenvalues --   -0.39453  -0.39399  -0.39217  -0.38403  -0.38140
 Alpha  occ. eigenvalues --   -0.37461  -0.36325  -0.35842  -0.35339  -0.35110
 Alpha  occ. eigenvalues --   -0.34171  -0.32928  -0.31923  -0.31715  -0.31001
 Alpha  occ. eigenvalues --   -0.30013  -0.28674  -0.28338  -0.27232  -0.25361
 Alpha virt. eigenvalues --   -0.01088   0.00698   0.03079   0.03651   0.08834
 Alpha virt. eigenvalues --    0.10134   0.10961   0.11759   0.12977   0.13455
 Alpha virt. eigenvalues --    0.13732   0.14324   0.15032   0.15413   0.15869

 Mulliken charges:
               1
     1  C   -0.303705
     2  C   -0.304749
     3  C   -0.309556
     4  C   -0.069537
     5  C    0.071239
     6  C   -0.304958
     7  H    0.167284
     8  H    0.161858
     9  H    0.159414
    10  H    0.144297
    11  H    0.157421
    12  H    0.207553
    13  H    0.140147
    14  H    0.183920
    15  H    0.149760
    16  H    0.149714
    17  N   -0.424776
    18  C    0.096635
    19  C    0.097225
    20  C   -0.226587
    21  H    0.204348
    22  C   -0.228388
    23  H    0.256504
    24  C    0.425830
    25  H    0.187340
    26  H    0.207966
    27  N   -0.525336
    28  C   -0.159398
    29  H    0.177937
    30  H    0.197926
    31  C   -0.145048
    32  H    0.169426
    33  H    0.193515
    34  N   -0.779959
    35  S    1.243184
    36  O   -0.633206
    37  O   -0.665949
    38  C    0.053001
    39  C   -0.177968
    40  C   -0.188742
    41  C   -0.169720
    42  C   -0.160233
    43  C   -0.199803
    44  H    0.203781
    45  H    0.140191
    46  H    0.157479
    47  H    0.162669
    48  H    0.159155
    49  O   -0.718410
    50  H    0.488259
    51  C    0.672773
    52  O   -0.520755
    53  O   -0.646616
    54  H    0.480011
    55  C   -0.376434
    56  H    0.199920
    57  H    0.168873
    58  C   -0.062465
    59  H    0.125132
    60  H    0.139330
    61  C   -0.667381
    62  H    0.235385
    63  H    0.184000
    64  H    0.204975
    65  C   -0.292460
    66  H    0.148170
    67  H    0.162917
    68  C   -0.480720
    69  H    0.160393
    70  H    0.159170
    71  H    0.152492
    72  C   -0.335146
    73  H    0.183962
    74  H    0.169292
    75  C   -0.335220
    76  H    0.178975
    77  H    0.172480
 Sum of Mulliken charges =  -0.00000

 Dipole moment (field-independent basis, Debye):
    X=              1.7933    Y=              0.3500    Z=             -6.8022  Tot=              7.0433
 Quadrupole moment (field-independent basis, Debye-Ang):
   XX=           -200.9190   YY=           -222.6549   ZZ=           -222.9702
   XY=            -11.6350   XZ=              1.6342   YZ=             13.4668

 Normal termination of Gaussian 16 at Thu Feb  7 21:00:32 2019.
