 Gaussian 16, Revision A.03,
 Gaussian 16:  ES64L-G16RevA.03 25-Dec-2016

 ------------------------------------------
 #p M062X/6-31G* em=gd3 force int=ultrafine
 ------------------------------------------

 -----
 Title
 -----
 Symbolic Z-matrix:
 Charge =  0 Multiplicity = 1

                         Standard orientation:
 ---------------------------------------------------------------------
 Center     Atomic      Atomic             Coordinates (Angstroms)
 Number     Number       Type             X           Y           Z
 ---------------------------------------------------------------------
      1          6           0       -4.837416    0.471563   -0.532836
      2          6           0       -5.029939   -0.844246   -1.292997
      3          6           0       -3.703683   -1.327746   -1.891623
      4          6           0       -2.689532   -1.502319   -0.766499
      5          6           0       -2.458496   -0.164335   -0.021157
      6          6           0       -3.779963    0.340059    0.568196
      7          1           0       -3.829841   -2.269511   -2.436234
      8          1           0       -5.419545   -1.611209   -0.610784
      9          1           0       -5.769139   -0.721047   -2.090739
     10          1           0       -4.522921    1.251137   -1.239636
     11          1           0       -5.788382    0.796051   -0.098105
     12          1           0       -3.066039   -2.239913   -0.050701
     13          1           0       -2.137139    0.567709   -0.773049
     14          1           0       -4.127390   -0.352257    1.342102
     15          1           0       -3.594006    1.311944    1.038239
     16          1           0       -3.352640   -0.570668   -2.605732
     17          7           0       -1.369597   -2.000526   -1.205812
     18          6           0       -0.689392   -1.354881   -2.190964
     19          6           0       -0.671515   -2.782000   -0.339551
     20          6           0        0.662994   -1.435626   -2.313454
     21          1           0       -1.283234   -0.739901   -2.855534
     22          6           0        0.682728   -2.899111   -0.388322
     23          1           0       -1.255232   -3.255022    0.442646
     24          6           0        1.424144   -2.129139   -1.325206
     25          1           0        1.148789   -0.893616   -3.113692
     26          1           0        1.171651   -3.481087    0.379866
     27          7           0        2.749370   -2.063953   -1.281318
     28          6           0        3.491879   -2.532500   -0.100979
     29          1           0        3.358204   -3.609091    0.037049
     30          1           0        3.119512   -1.981216    0.774716
     31          6           0        3.494772   -1.016862   -1.997380
     32          1           0        3.741427   -1.359021   -3.010198
     33          1           0        2.882824   -0.112050   -2.036323
     34          7           0       -1.342592   -0.225044    0.910927
     35         16           0       -1.360402   -1.046895    2.325074
     36          8           0       -2.594346   -1.836076    2.363718
     37          8           0       -0.088137   -1.754353    2.479041
     38          6           0       -0.535267    2.645373   -0.082458
     39          6           0       -0.061964    2.084861   -1.278830
     40          6           0       -0.827452    2.147070   -2.442552
     41          6           0       -2.079720    2.761065   -2.444862
     42          6           0       -2.561036    3.319080   -1.262991
     43          6           0       -1.791634    3.259622   -0.100881
     44          1           0        0.883531    1.551161   -1.258094
     45          1           0       -0.434523    1.716639   -3.361760
     46          1           0       -2.668776    2.811718   -3.356474
     47          1           0       -3.532600    3.805276   -1.244844
     48          1           0       -2.176783    3.705069    0.814321
     49          8           0        0.744424    1.509316    1.786127
     50          1           0       -0.383156    0.018971    0.590725
     51          6           0        1.946571    0.801495    1.201074
     52          8           0        1.614788    0.190222    0.092445
     53          8           0        2.284040   -0.071109    2.265044
     54          1           0        1.580707   -0.745316    2.265077
     55          6           0        3.118178    1.812927    1.147233
     56          1           0        3.002876    2.528246    1.971976
     57          1           0        4.027913    1.243860    1.376942
     58          6           0        0.279427    2.699377    1.214433
     59          1           0       -0.373945    3.152623    1.972485
     60          1           0        1.108126    3.408815    1.069188
     61          6           0       -1.411568    0.198211    3.592090
     62          1           0       -0.521178    0.815895    3.443043
     63          1           0       -2.329696    0.774896    3.468392
     64          1           0       -1.397751   -0.313004    4.556213
     65          6           0        3.321858    2.551842   -0.173078
     66          1           0        3.535171    1.824843   -0.965803
     67          1           0        2.405870    3.063336   -0.488123
     68          6           0        4.457192    3.569857   -0.073993
     69          1           0        4.631352    4.083220   -1.024689
     70          1           0        4.228533    4.331030    0.680512
     71          1           0        5.393339    3.085483    0.226137
     72          6           0        4.929440   -2.145232   -0.426852
     73          1           0        5.545099   -2.072908    0.471433
     74          1           0        5.378841   -2.882782   -1.101299
     75          6           0        4.740296   -0.802311   -1.133967
     76          1           0        4.509486   -0.037250   -0.387598
     77          1           0        5.605278   -0.484629   -1.719971
 ---------------------------------------------------------------------

 SCF Done:  E(RM062X) =  -1991.35710993     A.U. after   14 cycles

 The electronic state is 1-A.
 Alpha  occ. eigenvalues --  -90.14556 -19.62130 -19.62052 -19.58490 -19.56639
 Alpha  occ. eigenvalues --  -19.50754 -14.85284 -14.80312 -14.76524 -10.63359
 Alpha  occ. eigenvalues --  -10.62772 -10.62258 -10.62009 -10.60957 -10.59670
 Alpha  occ. eigenvalues --  -10.58166 -10.57951 -10.57864 -10.57168 -10.56886
 Alpha  occ. eigenvalues --  -10.56831 -10.55866 -10.55802 -10.54983 -10.54945
 Alpha  occ. eigenvalues --  -10.54900 -10.54797 -10.54645 -10.54536 -10.54528
 Alpha  occ. eigenvalues --  -10.54435 -10.54358 -10.52965 -10.51254 -10.51206
 Alpha  occ. eigenvalues --  -10.49477  -8.45531  -6.37753  -6.37720  -6.37565
 Alpha  occ. eigenvalues --   -1.22355  -1.13632  -1.13177  -1.10605  -1.09208
 Alpha  occ. eigenvalues --   -1.05721  -1.02191  -0.99168  -0.95862  -0.95016
 Alpha  occ. eigenvalues --   -0.93563  -0.90313  -0.88738  -0.86224  -0.85492
 Alpha  occ. eigenvalues --   -0.84852  -0.84784  -0.84041  -0.83078  -0.82929
 Alpha  occ. eigenvalues --   -0.76697  -0.76033  -0.75765  -0.74229  -0.73058
 Alpha  occ. eigenvalues --   -0.71775  -0.68282  -0.68143  -0.67897  -0.67406
 Alpha  occ. eigenvalues --   -0.66608  -0.65366  -0.64817  -0.63514  -0.60503
 Alpha  occ. eigenvalues --   -0.60358  -0.59658  -0.59501  -0.57728  -0.57721
 Alpha  occ. eigenvalues --   -0.57287  -0.56487  -0.55826  -0.55138  -0.54269
 Alpha  occ. eigenvalues --   -0.53612  -0.52849  -0.52612  -0.52483  -0.51963
 Alpha  occ. eigenvalues --   -0.51605  -0.50910  -0.50448  -0.49930  -0.49398
 Alpha  occ. eigenvalues --   -0.49123  -0.48968  -0.48241  -0.48121  -0.47854
 Alpha  occ. eigenvalues --   -0.47781  -0.47551  -0.47057  -0.46281  -0.46018
 Alpha  occ. eigenvalues --   -0.45033  -0.44755  -0.44261  -0.43809  -0.43278
 Alpha  occ. eigenvalues --   -0.42594  -0.42191  -0.41222  -0.41161  -0.40975
 Alpha  occ. eigenvalues --   -0.40807  -0.40555  -0.39970  -0.39783  -0.39262
 Alpha  occ. eigenvalues --   -0.39201  -0.39084  -0.38396  -0.38193  -0.37780
 Alpha  occ. eigenvalues --   -0.37306  -0.36648  -0.36440  -0.35960  -0.34952
 Alpha  occ. eigenvalues --   -0.34428  -0.34120  -0.31805  -0.31223  -0.29809
 Alpha  occ. eigenvalues --   -0.28883  -0.28601  -0.27727  -0.24300  -0.24052
 Alpha virt. eigenvalues --   -0.01449   0.00388   0.03473   0.03715   0.10119
 Alpha virt. eigenvalues --    0.10749   0.11481   0.12381   0.13157   0.13327
 Alpha virt. eigenvalues --    0.14187   0.14358   0.14738   0.15324   0.15580

 Mulliken charges:
               1
     1  C   -0.306371
     2  C   -0.307488
     3  C   -0.309820
     4  C   -0.059069
     5  C    0.055609
     6  C   -0.309949
     7  H    0.174868
     8  H    0.163074
     9  H    0.166371
    10  H    0.150775
    11  H    0.164568
    12  H    0.207636
    13  H    0.175062
    14  H    0.194970
    15  H    0.163484
    16  H    0.155543
    17  N   -0.434200
    18  C    0.070425
    19  C    0.066994
    20  C   -0.203285
    21  H    0.205428
    22  C   -0.211554
    23  H    0.243726
    24  C    0.447824
    25  H    0.192498
    26  H    0.211039
    27  N   -0.523159
    28  C   -0.168878
    29  H    0.168594
    30  H    0.226051
    31  C   -0.151478
    32  H    0.163023
    33  H    0.206388
    34  N   -0.805052
    35  S    1.248227
    36  O   -0.606592
    37  O   -0.599596
    38  C    0.072788
    39  C   -0.191268
    40  C   -0.191030
    41  C   -0.172550
    42  C   -0.164586
    43  C   -0.209755
    44  H    0.221646
    45  H    0.140238
    46  H    0.155010
    47  H    0.158525
    48  H    0.152262
    49  O   -0.562129
    50  H    0.442000
    51  C    0.719698
    52  O   -0.716160
    53  O   -0.714443
    54  H    0.438230
    55  C   -0.338354
    56  H    0.146366
    57  H    0.150257
    58  C   -0.085641
    59  H    0.136226
    60  H    0.149646
    61  C   -0.664326
    62  H    0.276649
    63  H    0.197916
    64  H    0.219324
    65  C   -0.288620
    66  H    0.134887
    67  H    0.144052
    68  C   -0.473727
    69  H    0.148178
    70  H    0.152048
    71  H    0.147199
    72  C   -0.332992
    73  H    0.186260
    74  H    0.161649
    75  C   -0.341340
    76  H    0.201009
    77  H    0.169176
 Sum of Mulliken charges =  -0.00000

 Dipole moment (field-independent basis, Debye):
    X=             -3.1248    Y=             -2.1595    Z=             -6.0687  Tot=              7.1594
 Quadrupole moment (field-independent basis, Debye-Ang):
   XX=           -207.1024   YY=           -221.7073   ZZ=           -219.9257
   XY=            -12.8477   XZ=             -4.6129   YZ=             10.3144

 Normal termination of Gaussian 16 at Thu Feb  7 12:27:16 2019.
