 Gaussian 16, Revision A.03,
 Gaussian 16:  ES64L-G16RevA.03 25-Dec-2016

 ------------------------------------------
 #p M062X/6-31G* em=gd3 force int=ultrafine
 ------------------------------------------

 -----
 Title
 -----
 Symbolic Z-matrix:
 Charge =  0 Multiplicity = 1

                         Standard orientation:
 ---------------------------------------------------------------------
 Center     Atomic      Atomic             Coordinates (Angstroms)
 Number     Number       Type             X           Y           Z
 ---------------------------------------------------------------------
      1          6           0       -4.865157    0.501363   -0.557370
      2          6           0       -5.037034   -0.800306   -1.345776
      3          6           0       -3.696927   -1.267981   -1.926057
      4          6           0       -2.702715   -1.465830   -0.786300
      5          6           0       -2.500490   -0.146548   -0.002317
      6          6           0       -3.835200    0.345741    0.564908
      7          1           0       -3.809316   -2.197330   -2.494410
      8          1           0       -5.438143   -1.580562   -0.685674
      9          1           0       -5.759687   -0.664690   -2.156437
     10          1           0       -4.531067    1.293999   -1.240696
     11          1           0       -5.826244    0.819317   -0.140733
     12          1           0       -3.087980   -2.224829   -0.097629
     13          1           0       -2.154932    0.603014   -0.725873
     14          1           0       -4.197986   -0.362259    1.317628
     15          1           0       -3.657572    1.307114    1.059794
     16          1           0       -3.333802   -0.493912   -2.615398
     17          7           0       -1.372884   -1.946931   -1.215594
     18          6           0       -0.687383   -1.300130   -2.196324
     19          6           0       -0.679553   -2.741512   -0.357662
     20          6           0        0.663520   -1.396630   -2.325747
     21          1           0       -1.275627   -0.674669   -2.855597
     22          6           0        0.673043   -2.874315   -0.413078
     23          1           0       -1.266077   -3.221248    0.418186
     24          6           0        1.422554   -2.112199   -1.351268
     25          1           0        1.151916   -0.854065   -3.124137
     26          1           0        1.156771   -3.473416    0.345260
     27          7           0        2.749382   -2.079465   -1.321228
     28          6           0        3.485719   -2.571354   -0.145670
     29          1           0        3.343561   -3.648922   -0.023560
     30          1           0        3.115128   -2.029275    0.736020
     31          6           0        3.517605   -1.044326   -2.033583
     32          1           0        3.776637   -1.398051   -3.039386
     33          1           0        2.921192   -0.130736   -2.085365
     34          7           0       -1.413316   -0.234960    0.956715
     35         16           0       -1.421377   -1.089539    2.347815
     36          8           0       -2.657390   -1.874709    2.361213
     37          8           0       -0.149411   -1.799206    2.484095
     38          6           0       -0.526007    2.661339   -0.078231
     39          6           0       -0.046024    2.069395   -1.255107
     40          6           0       -0.789891    2.143057   -2.432610
     41          6           0       -2.025812    2.788864   -2.459689
     42          6           0       -2.514621    3.370440   -1.291476
     43          6           0       -1.765980    3.306408   -0.116517
     44          1           0        0.887058    1.509978   -1.203963
     45          1           0       -0.394562    1.695673   -3.342582
     46          1           0       -2.598847    2.845217   -3.381107
     47          1           0       -3.476017    3.876708   -1.295083
     48          1           0       -2.154184    3.766657    0.790017
     49          8           0        0.713573    1.406891    1.691838
     50          1           0       -0.494330    0.188100    0.752221
     51          6           0        2.024023    0.763369    1.174064
     52          8           0        1.820113    0.188172    0.032013
     53          8           0        2.289204   -0.122347    2.246438
     54          1           0        1.583636   -0.792571    2.198720
     55          6           0        3.138806    1.830203    1.241282
     56          1           0        2.945249    2.518646    2.073875
     57          1           0        4.058258    1.292532    1.506610
     58          6           0        0.270124    2.650413    1.225665
     59          1           0       -0.387034    3.060496    2.006845
     60          1           0        1.106876    3.358097    1.134913
     61          6           0       -1.453566    0.134736    3.636249
     62          1           0       -0.564304    0.752939    3.479069
     63          1           0       -2.373161    0.713654    3.538453
     64          1           0       -1.416918   -0.386890    4.594014
     65          6           0        3.375559    2.596339   -0.058033
     66          1           0        3.634795    1.881328   -0.847352
     67          1           0        2.455519    3.083111   -0.402429
     68          6           0        4.477561    3.642947    0.091818
     69          1           0        4.667864    4.171974   -0.847201
     70          1           0        4.206334    4.388944    0.847298
     71          1           0        5.416281    3.178785    0.414534
     72          6           0        4.927819   -2.188165   -0.455631
     73          1           0        5.534589   -2.127455    0.449669
     74          1           0        5.381207   -2.921155   -1.132464
     75          6           0        4.750212   -0.837921   -1.150992
     76          1           0        4.500753   -0.081673   -0.401399
     77          1           0        5.624100   -0.515242   -1.721005
 ---------------------------------------------------------------------

 SCF Done:  E(RM062X) =  -1991.35588002     A.U. after   15 cycles

 The electronic state is 1-A.
 Alpha  occ. eigenvalues --  -90.14809 -19.62389 -19.62180 -19.58591 -19.56798
 Alpha  occ. eigenvalues --  -19.50456 -14.85235 -14.80086 -14.76753 -10.63200
 Alpha  occ. eigenvalues --  -10.62661 -10.62171 -10.62035 -10.61095 -10.59896
 Alpha  occ. eigenvalues --  -10.57827 -10.57803 -10.57633 -10.57025 -10.57007
 Alpha  occ. eigenvalues --  -10.56913 -10.56268 -10.55890 -10.55096 -10.55072
 Alpha  occ. eigenvalues --  -10.54987 -10.54826 -10.54685 -10.54684 -10.54626
 Alpha  occ. eigenvalues --  -10.54454 -10.54132 -10.53063 -10.51092 -10.50984
 Alpha  occ. eigenvalues --  -10.49455  -8.45776  -6.38004  -6.37958  -6.37818
 Alpha  occ. eigenvalues --   -1.22590  -1.13521  -1.12912  -1.10809  -1.08937
 Alpha  occ. eigenvalues --   -1.05806  -1.02524  -0.99548  -0.95872  -0.95174
 Alpha  occ. eigenvalues --   -0.93510  -0.90178  -0.88612  -0.86529  -0.85320
 Alpha  occ. eigenvalues --   -0.84928  -0.84869  -0.83755  -0.83249  -0.83089
 Alpha  occ. eigenvalues --   -0.76611  -0.75922  -0.75602  -0.74270  -0.73289
 Alpha  occ. eigenvalues --   -0.71793  -0.68217  -0.68173  -0.67776  -0.67511
 Alpha  occ. eigenvalues --   -0.66463  -0.65493  -0.64834  -0.63390  -0.60490
 Alpha  occ. eigenvalues --   -0.60345  -0.59954  -0.59477  -0.57896  -0.57693
 Alpha  occ. eigenvalues --   -0.57207  -0.56449  -0.55746  -0.55122  -0.54367
 Alpha  occ. eigenvalues --   -0.53588  -0.53082  -0.52697  -0.52482  -0.52121
 Alpha  occ. eigenvalues --   -0.51702  -0.50810  -0.50193  -0.49915  -0.49342
 Alpha  occ. eigenvalues --   -0.49213  -0.48983  -0.48430  -0.48145  -0.47971
 Alpha  occ. eigenvalues --   -0.47736  -0.47622  -0.47168  -0.46149  -0.45827
 Alpha  occ. eigenvalues --   -0.45196  -0.45067  -0.44365  -0.43906  -0.43230
 Alpha  occ. eigenvalues --   -0.42515  -0.42296  -0.41136  -0.40941  -0.40816
 Alpha  occ. eigenvalues --   -0.40670  -0.40439  -0.40048  -0.39841  -0.39378
 Alpha  occ. eigenvalues --   -0.39205  -0.38915  -0.38574  -0.38349  -0.37853
 Alpha  occ. eigenvalues --   -0.37343  -0.36508  -0.36419  -0.36086  -0.34995
 Alpha  occ. eigenvalues --   -0.34482  -0.34261  -0.31790  -0.31331  -0.29971
 Alpha  occ. eigenvalues --   -0.29156  -0.28797  -0.27751  -0.24070  -0.23875
 Alpha virt. eigenvalues --   -0.01276   0.00524   0.03257   0.03583   0.10131
 Alpha virt. eigenvalues --    0.10589   0.11326   0.12543   0.13167   0.13273
 Alpha virt. eigenvalues --    0.14115   0.14425   0.14952   0.15477   0.15555

 Mulliken charges:
               1
     1  C   -0.306378
     2  C   -0.307816
     3  C   -0.310807
     4  C   -0.059370
     5  C    0.061779
     6  C   -0.307540
     7  H    0.175575
     8  H    0.163236
     9  H    0.166865
    10  H    0.150965
    11  H    0.165075
    12  H    0.206773
    13  H    0.175496
    14  H    0.193701
    15  H    0.162001
    16  H    0.156180
    17  N   -0.437487
    18  C    0.076452
    19  C    0.075788
    20  C   -0.207145
    21  H    0.203613
    22  C   -0.218148
    23  H    0.243080
    24  C    0.449755
    25  H    0.192236
    26  H    0.210089
    27  N   -0.519237
    28  C   -0.167087
    29  H    0.167014
    30  H    0.223429
    31  C   -0.146909
    32  H    0.160711
    33  H    0.205801
    34  N   -0.803055
    35  S    1.240982
    36  O   -0.603273
    37  O   -0.591902
    38  C    0.054686
    39  C   -0.196188
    40  C   -0.191994
    41  C   -0.172348
    42  C   -0.165497
    43  C   -0.205627
    44  H    0.231080
    45  H    0.141591
    46  H    0.155924
    47  H    0.159471
    48  H    0.153602
    49  O   -0.585688
    50  H    0.443692
    51  C    0.717716
    52  O   -0.702005
    53  O   -0.706886
    54  H    0.432210
    55  C   -0.340594
    56  H    0.143479
    57  H    0.150296
    58  C   -0.082765
    59  H    0.132944
    60  H    0.155025
    61  C   -0.665240
    62  H    0.271329
    63  H    0.199968
    64  H    0.221947
    65  C   -0.285582
    66  H    0.140755
    67  H    0.140558
    68  C   -0.474374
    69  H    0.147851
    70  H    0.149897
    71  H    0.147875
    72  C   -0.333746
    73  H    0.185007
    74  H    0.160084
    75  C   -0.339032
    76  H    0.204263
    77  H    0.165875
 Sum of Mulliken charges =  -0.00000

 Dipole moment (field-independent basis, Debye):
    X=             -3.6004    Y=             -1.7917    Z=             -5.7771  Tot=              7.0391
 Quadrupole moment (field-independent basis, Debye-Ang):
   XX=           -208.5152   YY=           -221.9883   ZZ=           -218.7409
   XY=            -13.2436   XZ=             -4.1562   YZ=             10.6523

 Normal termination of Gaussian 16 at Thu Feb  7 10:57:01 2019.
