 Gaussian 16, Revision A.03,
 Gaussian 16:  ES64L-G16RevA.03 25-Dec-2016

 ------------------------------------------
 #p M062X/6-31G* em=gd3 force int=ultrafine
 ------------------------------------------

 -----
 Title
 -----
 Symbolic Z-matrix:
 Charge =  0 Multiplicity = 1

                         Standard orientation:
 ---------------------------------------------------------------------
 Center     Atomic      Atomic             Coordinates (Angstroms)
 Number     Number       Type             X           Y           Z
 ---------------------------------------------------------------------
      1          6           0       -4.856438    0.337853   -0.487702
      2          6           0       -4.983421   -0.938634   -1.324559
      3          6           0       -3.626889   -1.341846   -1.916471
      4          6           0       -2.633473   -1.546325   -0.777809
      5          6           0       -2.462542   -0.250511    0.062088
      6          6           0       -3.823655    0.173319    0.631044
      7          1           0       -3.711538   -2.250329   -2.523452
      8          1           0       -5.358652   -1.754734   -0.693385
      9          1           0       -5.708624   -0.799166   -2.132932
     10          1           0       -4.542594    1.163301   -1.142437
     11          1           0       -5.831216    0.612919   -0.071065
     12          1           0       -2.987285   -2.345497   -0.118765
     13          1           0       -2.176781    0.526093   -0.664337
     14          1           0       -4.161585   -0.569277    1.363915
     15          1           0       -3.678387    1.124233    1.158009
     16          1           0       -3.289354   -0.528457   -2.573602
     17          7           0       -1.281003   -1.963102   -1.222734
     18          6           0       -0.631290   -1.280821   -2.195250
     19          6           0       -0.555457   -2.737508   -0.380960
     20          6           0        0.724368   -1.339418   -2.348684
     21          1           0       -1.245066   -0.657127   -2.832270
     22          6           0        0.803679   -2.844739   -0.469970
     23          1           0       -1.114460   -3.234317    0.404713
     24          6           0        1.514540   -2.066273   -1.414689
     25          1           0        1.182993   -0.770067   -3.146634
     26          1           0        1.310951   -3.438357    0.277506
     27          7           0        2.854083   -2.001401   -1.408416
     28          6           0        3.614982   -2.501503   -0.254764
     29          1           0        3.526491   -3.588097   -0.171318
     30          1           0        3.222490   -2.038104    0.661258
     31          6           0        3.584563   -0.928273   -2.104332
     32          1           0        3.854468   -1.250741   -3.116912
     33          1           0        2.963004   -0.030678   -2.156723
     34          7           0       -1.348173   -0.325312    0.973804
     35         16           0       -1.363780   -1.215564    2.282498
     36          8           0       -2.469601   -2.195728    2.319400
     37          8           0       -0.002297   -1.780499    2.482448
     38          6           0       -0.802583    2.790581   -0.085937
     39          6           0       -0.205971    2.136740   -1.172158
     40          6           0       -0.840949    2.135264   -2.412850
     41          6           0       -2.086144    2.744426   -2.576596
     42          6           0       -2.692595    3.369348   -1.490025
     43          6           0       -2.046673    3.392440   -0.257173
     44          1           0        0.730727    1.599975   -1.030304
     45          1           0       -0.364367    1.650489   -3.262643
     46          1           0       -2.582499    2.731666   -3.542284
     47          1           0       -3.666876    3.836463   -1.595357
     48          1           0       -2.515007    3.872261    0.598656
     49          8           0        0.297847    1.566287    1.691151
     50          1           0       -0.317961    0.852487    1.300452
     51          6           0        2.426973    0.568584    1.165559
     52          8           0        2.094937    0.162463    0.067456
     53          8           0        2.277172   -0.135899    2.283350
     54          1           0        1.539612   -0.791426    2.177177
     55          6           0        3.150846    1.878329    1.382074
     56          1           0        2.613562    2.415790    2.170784
     57          1           0        4.144701    1.647683    1.788259
     58          6           0       -0.151260    2.816601    1.279557
     59          1           0       -0.864708    3.242530    2.002892
     60          1           0        0.722704    3.485443    1.266451
     61          6           0       -1.557621   -0.081581    3.657419
     62          1           0       -0.754488    0.652238    3.555343
     63          1           0       -2.532458    0.403932    3.580564
     64          1           0       -1.467024   -0.633075    4.593949
     65          6           0        3.276822    2.723892    0.116318
     66          1           0        3.665265    2.103957   -0.700196
     67          1           0        2.284658    3.054708   -0.212549
     68          6           0        4.182433    3.934867    0.329031
     69          1           0        4.311568    4.506745   -0.594472
     70          1           0        3.770241    4.610405    1.086129
     71          1           0        5.174759    3.621629    0.671231
     72          6           0        5.040198   -2.039433   -0.542351
     73          1           0        5.636967   -1.965207    0.368997
     74          1           0        5.533106   -2.740110   -1.223931
     75          6           0        4.818890   -0.689958   -1.228631
     76          1           0        4.576530    0.067130   -0.477811
     77          1           0        5.679780   -0.345093   -1.804961
 ---------------------------------------------------------------------

 SCF Done:  E(RM062X) =  -1991.37985297     A.U. after   15 cycles

 The electronic state is 1-A.
 Alpha  occ. eigenvalues --  -90.10222 -19.63689 -19.60221 -19.58438 -19.58297
 Alpha  occ. eigenvalues --  -19.58246 -14.84806 -14.80408 -14.69260 -10.65942
 Alpha  occ. eigenvalues --  -10.63220 -10.62450 -10.61664 -10.59283 -10.59050
 Alpha  occ. eigenvalues --  -10.58860 -10.57833 -10.57270 -10.56773 -10.56731
 Alpha  occ. eigenvalues --  -10.55916 -10.55681 -10.55643 -10.55121 -10.55049
 Alpha  occ. eigenvalues --  -10.54954 -10.54649 -10.54622 -10.54519 -10.54015
 Alpha  occ. eigenvalues --  -10.53653 -10.53610 -10.53602 -10.53236 -10.52981
 Alpha  occ. eigenvalues --  -10.52623  -8.41171  -6.33407  -6.33318  -6.33240
 Alpha  occ. eigenvalues --   -1.19336  -1.17665  -1.12930  -1.10123  -1.09940
 Alpha  occ. eigenvalues --   -1.09043  -1.05974  -0.97603  -0.95397  -0.94742
 Alpha  occ. eigenvalues --   -0.92206  -0.89817  -0.88571  -0.88440  -0.85108
 Alpha  occ. eigenvalues --   -0.84793  -0.83746  -0.83573  -0.83279  -0.79973
 Alpha  occ. eigenvalues --   -0.79487  -0.76308  -0.75603  -0.74619  -0.70965
 Alpha  occ. eigenvalues --   -0.70322  -0.69428  -0.68651  -0.68354  -0.68126
 Alpha  occ. eigenvalues --   -0.66036  -0.64776  -0.63921  -0.63551  -0.61618
 Alpha  occ. eigenvalues --   -0.60298  -0.59389  -0.59140  -0.58360  -0.56185
 Alpha  occ. eigenvalues --   -0.55818  -0.55343  -0.55186  -0.54581  -0.53938
 Alpha  occ. eigenvalues --   -0.53489  -0.53055  -0.52663  -0.51807  -0.51632
 Alpha  occ. eigenvalues --   -0.51064  -0.50942  -0.50635  -0.49986  -0.49867
 Alpha  occ. eigenvalues --   -0.49770  -0.49519  -0.48761  -0.48315  -0.48058
 Alpha  occ. eigenvalues --   -0.47658  -0.47278  -0.47103  -0.47007  -0.45781
 Alpha  occ. eigenvalues --   -0.45485  -0.45145  -0.43998  -0.43767  -0.43499
 Alpha  occ. eigenvalues --   -0.43156  -0.42845  -0.42133  -0.41963  -0.41787
 Alpha  occ. eigenvalues --   -0.41256  -0.40934  -0.40513  -0.39899  -0.39691
 Alpha  occ. eigenvalues --   -0.39436  -0.39390  -0.39193  -0.38404  -0.38132
 Alpha  occ. eigenvalues --   -0.37451  -0.36320  -0.35839  -0.35336  -0.35138
 Alpha  occ. eigenvalues --   -0.34189  -0.32940  -0.31939  -0.31712  -0.31074
 Alpha  occ. eigenvalues --   -0.30002  -0.28719  -0.28342  -0.27262  -0.25361
 Alpha virt. eigenvalues --   -0.01088   0.00690   0.03084   0.03653   0.08781
 Alpha virt. eigenvalues --    0.10141   0.10971   0.11762   0.12973   0.13463
 Alpha virt. eigenvalues --    0.13736   0.14319   0.15015   0.15423   0.15869

 Mulliken charges:
               1
     1  C   -0.303763
     2  C   -0.304639
     3  C   -0.309722
     4  C   -0.070113
     5  C    0.070542
     6  C   -0.304894
     7  H    0.167269
     8  H    0.161746
     9  H    0.159395
    10  H    0.144454
    11  H    0.157344
    12  H    0.207851
    13  H    0.140114
    14  H    0.183250
    15  H    0.149921
    16  H    0.149775
    17  N   -0.424680
    18  C    0.096780
    19  C    0.095752
    20  C   -0.226510
    21  H    0.204409
    22  C   -0.228160
    23  H    0.257203
    24  C    0.425983
    25  H    0.187357
    26  H    0.207966
    27  N   -0.525624
    28  C   -0.159373
    29  H    0.178005
    30  H    0.197883
    31  C   -0.145134
    32  H    0.169463
    33  H    0.193568
    34  N   -0.776625
    35  S    1.243740
    36  O   -0.634408
    37  O   -0.666623
    38  C    0.052766
    39  C   -0.177515
    40  C   -0.188823
    41  C   -0.169610
    42  C   -0.160264
    43  C   -0.199903
    44  H    0.203713
    45  H    0.140124
    46  H    0.157456
    47  H    0.162636
    48  H    0.159057
    49  O   -0.718242
    50  H    0.487099
    51  C    0.670477
    52  O   -0.520771
    53  O   -0.646550
    54  H    0.480764
    55  C   -0.375974
    56  H    0.201098
    57  H    0.168398
    58  C   -0.062449
    59  H    0.125483
    60  H    0.140442
    61  C   -0.666592
    62  H    0.234160
    63  H    0.184276
    64  H    0.205137
    65  C   -0.292029
    66  H    0.147855
    67  H    0.162718
    68  C   -0.480735
    69  H    0.160254
    70  H    0.159118
    71  H    0.152390
    72  C   -0.335375
    73  H    0.184064
    74  H    0.169370
    75  C   -0.335292
    76  H    0.179235
    77  H    0.172529
 Sum of Mulliken charges =  -0.00000

 Dipole moment (field-independent basis, Debye):
    X=              1.7545    Y=              0.2823    Z=             -6.8033  Tot=              7.0316
 Quadrupole moment (field-independent basis, Debye-Ang):
   XX=           -200.6985   YY=           -222.6045   ZZ=           -222.9931
   XY=            -11.6158   XZ=              1.4579   YZ=             13.3535

 Normal termination of Gaussian 16 at Thu Feb  7 21:14:01 2019.
