 Gaussian 16, Revision A.03,
 Gaussian 16:  ES64L-G16RevA.03 25-Dec-2016

 ------------------------------------------
 #p M062X/6-31G* em=gd3 force int=ultrafine
 ------------------------------------------

 -----
 Title
 -----
 Symbolic Z-matrix:
 Charge =  0 Multiplicity = 1

                         Standard orientation:
 ---------------------------------------------------------------------
 Center     Atomic      Atomic             Coordinates (Angstroms)
 Number     Number       Type             X           Y           Z
 ---------------------------------------------------------------------
      1          6           0       -4.863515    0.280543   -0.472190
      2          6           0       -4.978554   -1.004098   -1.298087
      3          6           0       -3.617778   -1.398342   -1.885994
      4          6           0       -2.618685   -1.576834   -0.746899
      5          6           0       -2.458231   -0.265372    0.073453
      6          6           0       -3.825138    0.138330    0.644874
      7          1           0       -3.692964   -2.315453   -2.481341
      8          1           0       -5.347357   -1.818728   -0.661216
      9          1           0       -5.704345   -0.877719   -2.108289
     10          1           0       -4.559808    1.103298   -1.135004
     11          1           0       -5.840391    0.548946   -0.056065
     12          1           0       -2.963831   -2.370779   -0.077386
     13          1           0       -2.194455    0.504481   -0.667959
     14          1           0       -4.149445   -0.607430    1.381178
     15          1           0       -3.695649    1.093536    1.167781
     16          1           0       -3.291735   -0.589543   -2.554405
     17          7           0       -1.265345   -1.988889   -1.191632
     18          6           0       -0.626048   -1.315472   -2.176758
     19          6           0       -0.531273   -2.748411   -0.344060
     20          6           0        0.729141   -1.366861   -2.336280
     21          1           0       -1.248200   -0.706061   -2.819459
     22          6           0        0.827913   -2.847455   -0.438606
     23          1           0       -1.083410   -3.235711    0.452506
     24          6           0        1.528336   -2.076782   -1.397153
     25          1           0        1.179740   -0.805382   -3.144220
     26          1           0        1.343178   -3.426760    0.314597
     27          7           0        2.867382   -2.004619   -1.398812
     28          6           0        3.637420   -2.494255   -0.247197
     29          1           0        3.559876   -3.581768   -0.162025
     30          1           0        3.242941   -2.034067    0.669547
     31          6           0        3.589107   -0.937253   -2.111160
     32          1           0        3.856190   -1.270998   -3.120947
     33          1           0        2.962370   -0.043745   -2.172350
     34          7           0       -1.334729   -0.298405    0.980170
     35         16           0       -1.328446   -1.194713    2.283230
     36          8           0       -2.401379   -2.212097    2.313129
     37          8           0        0.046727   -1.723704    2.492408
     38          6           0       -0.863698    2.812180   -0.112874
     39          6           0       -0.248255    2.140632   -1.177227
     40          6           0       -0.869245    2.103558   -2.424334
     41          6           0       -2.119440    2.694080   -2.615896
     42          6           0       -2.747587    3.331276   -1.548998
     43          6           0       -2.116185    3.389282   -0.309363
     44          1           0        0.693524    1.619375   -1.013242
     45          1           0       -0.376187    1.607311   -3.257771
     46          1           0       -2.602175    2.658096   -3.587977
     47          1           0       -3.726614    3.783156   -1.675966
     48          1           0       -2.602632    3.880649    0.529759
     49          8           0        0.293901    1.672711    1.689511
     50          1           0       -0.298676    0.936234    1.324905
     51          6           0        2.438933    0.586096    1.164642
     52          8           0        2.093584    0.176150    0.073191
     53          8           0        2.280088   -0.102564    2.289980
     54          1           0        1.546697   -0.765228    2.186089
     55          6           0        3.167643    1.894426    1.370195
     56          1           0        2.628354    2.433181    2.156290
     57          1           0        4.165390    1.672599    1.772571
     58          6           0       -0.212871    2.894688    1.251093
     59          1           0       -0.943084    3.307669    1.965459
     60          1           0        0.630226    3.601911    1.218572
     61          6           0       -1.571653   -0.079703    3.665171
     62          1           0       -0.790185    0.680001    3.585776
     63          1           0       -2.559833    0.376007    3.576951
     64          1           0       -1.480951   -0.638786    4.597269
     65          6           0        3.270613    2.728502    0.096446
     66          1           0        3.669698    2.109863   -0.716089
     67          1           0        2.266199    3.026394   -0.226123
     68          6           0        4.144007    3.965496    0.288151
     69          1           0        4.243860    4.532321   -0.642074
     70          1           0        3.721493    4.634947    1.044873
     71          1           0        5.149654    3.684777    0.619582
     72          6           0        5.057993   -2.020277   -0.539743
     73          1           0        5.651679   -1.927406    0.371937
     74          1           0        5.560529   -2.724845   -1.210073
     75          6           0        4.826018   -0.681760   -1.244156
     76          1           0        4.584229    0.085630   -0.503779
     77          1           0        5.682910   -0.342423   -1.829698
 ---------------------------------------------------------------------

 SCF Done:  E(RM062X) =  -1991.38313029     A.U. after   15 cycles

 The electronic state is 1-A.
 Alpha  occ. eigenvalues --  -90.10233 -19.63588 -19.60246 -19.58742 -19.58318
 Alpha  occ. eigenvalues --  -19.58286 -14.84799 -14.80429 -14.69279 -10.65798
 Alpha  occ. eigenvalues --  -10.63218 -10.62438 -10.61602 -10.59240 -10.59081
 Alpha  occ. eigenvalues --  -10.58905 -10.57834 -10.57353 -10.56773 -10.56717
 Alpha  occ. eigenvalues --  -10.55942 -10.55701 -10.55625 -10.55083 -10.55013
 Alpha  occ. eigenvalues --  -10.54932 -10.54653 -10.54610 -10.54516 -10.53975
 Alpha  occ. eigenvalues --  -10.53598 -10.53510 -10.53472 -10.53343 -10.52895
 Alpha  occ. eigenvalues --  -10.52624  -8.41186  -6.33423  -6.33332  -6.33253
 Alpha  occ. eigenvalues --   -1.19301  -1.17694  -1.12929  -1.10123  -1.10044
 Alpha  occ. eigenvalues --   -1.09079  -1.05986  -0.97541  -0.95366  -0.94740
 Alpha  occ. eigenvalues --   -0.92191  -0.89822  -0.88563  -0.88358  -0.85099
 Alpha  occ. eigenvalues --   -0.84836  -0.83712  -0.83546  -0.83280  -0.80018
 Alpha  occ. eigenvalues --   -0.79403  -0.76317  -0.75614  -0.74660  -0.70949
 Alpha  occ. eigenvalues --   -0.70270  -0.69333  -0.68666  -0.68347  -0.68104
 Alpha  occ. eigenvalues --   -0.65995  -0.64761  -0.63913  -0.63496  -0.61603
 Alpha  occ. eigenvalues --   -0.60280  -0.59371  -0.59113  -0.58363  -0.56164
 Alpha  occ. eigenvalues --   -0.55686  -0.55309  -0.55165  -0.54436  -0.53893
 Alpha  occ. eigenvalues --   -0.53467  -0.53054  -0.52630  -0.51848  -0.51643
 Alpha  occ. eigenvalues --   -0.51068  -0.50944  -0.50625  -0.50014  -0.49830
 Alpha  occ. eigenvalues --   -0.49725  -0.49524  -0.48770  -0.48316  -0.48032
 Alpha  occ. eigenvalues --   -0.47754  -0.47241  -0.47085  -0.46993  -0.45811
 Alpha  occ. eigenvalues --   -0.45539  -0.45174  -0.43966  -0.43718  -0.43481
 Alpha  occ. eigenvalues --   -0.42987  -0.42832  -0.42154  -0.42039  -0.41826
 Alpha  occ. eigenvalues --   -0.41220  -0.40930  -0.40519  -0.39894  -0.39648
 Alpha  occ. eigenvalues --   -0.39397  -0.39351  -0.39093  -0.38401  -0.38090
 Alpha  occ. eigenvalues --   -0.37395  -0.36282  -0.35826  -0.35327  -0.35182
 Alpha  occ. eigenvalues --   -0.34244  -0.32976  -0.31975  -0.31689  -0.31274
 Alpha  occ. eigenvalues --   -0.29966  -0.28799  -0.28340  -0.27310  -0.25344
 Alpha virt. eigenvalues --   -0.01074   0.00678   0.03114   0.03686   0.08810
 Alpha virt. eigenvalues --    0.10157   0.10964   0.11783   0.12961   0.13507
 Alpha virt. eigenvalues --    0.13776   0.14313   0.14988   0.15455   0.15864

 Mulliken charges:
               1
     1  C   -0.303905
     2  C   -0.304355
     3  C   -0.309883
     4  C   -0.071500
     5  C    0.068447
     6  C   -0.304764
     7  H    0.167054
     8  H    0.161429
     9  H    0.159291
    10  H    0.144896
    11  H    0.157098
    12  H    0.209226
    13  H    0.140243
    14  H    0.181395
    15  H    0.150205
    16  H    0.149840
    17  N   -0.424217
    18  C    0.097207
    19  C    0.091048
    20  C   -0.226379
    21  H    0.204559
    22  C   -0.227370
    23  H    0.259588
    24  C    0.426371
    25  H    0.187471
    26  H    0.207902
    27  N   -0.526491
    28  C   -0.159228
    29  H    0.178188
    30  H    0.198065
    31  C   -0.145632
    32  H    0.169604
    33  H    0.193834
    34  N   -0.769119
    35  S    1.246145
    36  O   -0.638500
    37  O   -0.668325
    38  C    0.051722
    39  C   -0.176364
    40  C   -0.188758
    41  C   -0.169515
    42  C   -0.160541
    43  C   -0.199874
    44  H    0.203853
    45  H    0.139794
    46  H    0.157220
    47  H    0.162453
    48  H    0.158636
    49  O   -0.717498
    50  H    0.486028
    51  C    0.663810
    52  O   -0.519107
    53  O   -0.647587
    54  H    0.482571
    55  C   -0.374310
    56  H    0.202706
    57  H    0.167086
    58  C   -0.062984
    59  H    0.126534
    60  H    0.144074
    61  C   -0.664143
    62  H    0.230495
    63  H    0.185169
    64  H    0.205683
    65  C   -0.290982
    66  H    0.146815
    67  H    0.162223
    68  C   -0.480549
    69  H    0.159789
    70  H    0.158802
    71  H    0.152100
    72  C   -0.336044
    73  H    0.184362
    74  H    0.169618
    75  C   -0.335570
    76  H    0.180096
    77  H    0.172750
 Sum of Mulliken charges =  -0.00000

 Dipole moment (field-independent basis, Debye):
    X=              1.6510    Y=              0.0758    Z=             -6.7654  Tot=              6.9644
 Quadrupole moment (field-independent basis, Debye-Ang):
   XX=           -200.0713   YY=           -222.4514   ZZ=           -222.9116
   XY=            -11.5900   XZ=              0.7811   YZ=             13.0567

 Normal termination of Gaussian 16 at Thu Feb  7 21:54:23 2019.
