 Gaussian 16, Revision A.03,
 Gaussian 16:  ES64L-G16RevA.03 25-Dec-2016

 ------------------------------------------
 #p M062X/6-31G* em=gd3 force int=ultrafine
 ------------------------------------------

 -----
 Title
 -----
 Symbolic Z-matrix:
 Charge =  0 Multiplicity = 1

                         Standard orientation:
 ---------------------------------------------------------------------
 Center     Atomic      Atomic             Coordinates (Angstroms)
 Number     Number       Type             X           Y           Z
 ---------------------------------------------------------------------
      1          6           0       -4.864304    0.512133   -0.554666
      2          6           0       -5.034225   -0.781589   -1.356328
      3          6           0       -3.692379   -1.243726   -1.937016
      4          6           0       -2.701508   -1.454744   -0.796576
      5          6           0       -2.502125   -0.145034    0.003963
      6          6           0       -3.838844    0.343849    0.569761
      7          1           0       -3.803436   -2.166780   -2.515797
      8          1           0       -5.437681   -1.568129   -0.705167
      9          1           0       -5.754231   -0.637762   -2.167932
     10          1           0       -4.526351    1.310948   -1.228924
     11          1           0       -5.826619    0.827375   -0.138818
     12          1           0       -3.088988   -2.221933   -0.118272
     13          1           0       -2.150242    0.611593   -0.709209
     14          1           0       -4.205045   -0.370952    1.314486
     15          1           0       -3.661640    1.300207    1.074665
     16          1           0       -3.326817   -0.462323   -2.616739
     17          7           0       -1.370662   -1.931502   -1.228085
     18          6           0       -0.684254   -1.277941   -2.203467
     19          6           0       -0.677980   -2.733421   -0.376671
     20          6           0        0.666484   -1.375615   -2.334398
     21          1           0       -1.271608   -0.646666   -2.857873
     22          6           0        0.674435   -2.868521   -0.434129
     23          1           0       -1.264942   -3.219624    0.394805
     24          6           0        1.425209   -2.101494   -1.367392
     25          1           0        1.155168   -0.827649   -3.128955
     26          1           0        1.157135   -3.475576    0.318536
     27          7           0        2.752440   -2.074181   -1.339778
     28          6           0        3.487771   -2.576737   -0.168062
     29          1           0        3.344577   -3.655183   -0.055059
     30          1           0        3.117111   -2.042180    0.718052
     31          6           0        3.524282   -1.036681   -2.045396
     32          1           0        3.784870   -1.386156   -3.052264
     33          1           0        2.930672   -0.121292   -2.093865
     34          7           0       -1.418823   -0.252223    0.964990
     35         16           0       -1.433017   -1.120385    2.346152
     36          8           0       -2.667205   -1.908563    2.345148
     37          8           0       -0.160278   -1.828915    2.481584
     38          6           0       -0.528833    2.672179   -0.070091
     39          6           0       -0.043351    2.073497   -1.240913
     40          6           0       -0.777448    2.151761   -2.424152
     41          6           0       -2.009673    2.804428   -2.460155
     42          6           0       -2.504757    3.389277   -1.296125
     43          6           0       -1.764879    3.323514   -0.115804
     44          1           0        0.885853    1.507009   -1.180812
     45          1           0       -0.378479    1.701773   -3.331208
     46          1           0       -2.575756    2.863084   -3.385689
     47          1           0       -3.464220    3.899032   -1.307184
     48          1           0       -2.157027    3.785069    0.788353
     49          8           0        0.694011    1.381321    1.666632
     50          1           0       -0.522209    0.238078    0.816405
     51          6           0        2.038225    0.749317    1.172859
     52          8           0        1.869665    0.186093    0.024232
     53          8           0        2.276960   -0.138218    2.247688
     54          1           0        1.576358   -0.812004    2.181240
     55          6           0        3.134066    1.830510    1.276239
     56          1           0        2.918653    2.506979    2.113256
     57          1           0        4.055911    1.300603    1.549482
     58          6           0        0.258376    2.640478    1.236837
     59          1           0       -0.401081    3.036215    2.024170
     60          1           0        1.098208    3.346368    1.165438
     61          6           0       -1.468187    0.092684    3.645998
     62          1           0       -0.580441    0.714373    3.493187
     63          1           0       -2.388935    0.670760    3.554576
     64          1           0       -1.427553   -0.435638    4.599870
     65          6           0        3.379567    2.610548   -0.013212
     66          1           0        3.660908    1.904545   -0.802861
     67          1           0        2.456945    3.084915   -0.368215
     68          6           0        4.463113    3.672414    0.159558
     69          1           0        4.658799    4.209899   -0.773522
     70          1           0        4.170080    4.409628    0.915517
     71          1           0        5.403963    3.220058    0.492604
     72          6           0        4.930575   -2.191982   -0.472887
     73          1           0        5.535743   -2.138335    0.433970
     74          1           0        5.384780   -2.920363   -1.154114
     75          6           0        4.755093   -0.836728   -1.158919
     76          1           0        4.502799   -0.085715   -0.405017
     77          1           0        5.630419   -0.510762   -1.724852
 ---------------------------------------------------------------------

 SCF Done:  E(RM062X) =  -1991.35572652     A.U. after   15 cycles

 The electronic state is 1-A.
 Alpha  occ. eigenvalues --  -90.14785 -19.62392 -19.62130 -19.58652 -19.56917
 Alpha  occ. eigenvalues --  -19.50520 -14.85192 -14.80035 -14.76625 -10.63157
 Alpha  occ. eigenvalues --  -10.62617 -10.62135 -10.62132 -10.61089 -10.59894
 Alpha  occ. eigenvalues --  -10.57764 -10.57759 -10.57604 -10.57054 -10.56975
 Alpha  occ. eigenvalues --  -10.56900 -10.56341 -10.55883 -10.55116 -10.55095
 Alpha  occ. eigenvalues --  -10.55034 -10.54873 -10.54688 -10.54680 -10.54643
 Alpha  occ. eigenvalues --  -10.54476 -10.54058 -10.53116 -10.51091 -10.50977
 Alpha  occ. eigenvalues --  -10.49517  -8.45753  -6.37981  -6.37932  -6.37799
 Alpha  occ. eigenvalues --   -1.22568  -1.13471  -1.12879  -1.10777  -1.08877
 Alpha  occ. eigenvalues --   -1.05914  -1.02491  -0.99799  -0.95845  -0.95219
 Alpha  occ. eigenvalues --   -0.93478  -0.90129  -0.88574  -0.86546  -0.85336
 Alpha  occ. eigenvalues --   -0.84950  -0.84859  -0.83704  -0.83302  -0.83080
 Alpha  occ. eigenvalues --   -0.76573  -0.75951  -0.75558  -0.74285  -0.73281
 Alpha  occ. eigenvalues --   -0.71769  -0.68232  -0.68153  -0.67754  -0.67495
 Alpha  occ. eigenvalues --   -0.66446  -0.65495  -0.64867  -0.63348  -0.60505
 Alpha  occ. eigenvalues --   -0.60382  -0.59958  -0.59440  -0.57927  -0.57692
 Alpha  occ. eigenvalues --   -0.57160  -0.56409  -0.55694  -0.55112  -0.54384
 Alpha  occ. eigenvalues --   -0.53567  -0.53088  -0.52687  -0.52487  -0.52173
 Alpha  occ. eigenvalues --   -0.51695  -0.50797  -0.50148  -0.49914  -0.49347
 Alpha  occ. eigenvalues --   -0.49238  -0.48961  -0.48473  -0.48172  -0.48002
 Alpha  occ. eigenvalues --   -0.47737  -0.47627  -0.47168  -0.46147  -0.45801
 Alpha  occ. eigenvalues --   -0.45244  -0.45154  -0.44385  -0.43968  -0.43202
 Alpha  occ. eigenvalues --   -0.42480  -0.42320  -0.41159  -0.40886  -0.40768
 Alpha  occ. eigenvalues --   -0.40675  -0.40404  -0.40102  -0.39833  -0.39397
 Alpha  occ. eigenvalues --   -0.39177  -0.38886  -0.38655  -0.38336  -0.37823
 Alpha  occ. eigenvalues --   -0.37390  -0.36497  -0.36433  -0.36073  -0.35014
 Alpha  occ. eigenvalues --   -0.34519  -0.34277  -0.31748  -0.31367  -0.30020
 Alpha  occ. eigenvalues --   -0.29274  -0.28831  -0.27749  -0.24174  -0.23909
 Alpha virt. eigenvalues --   -0.01230   0.00574   0.03213   0.03551   0.10144
 Alpha virt. eigenvalues --    0.10587   0.11327   0.12561   0.13169   0.13302
 Alpha virt. eigenvalues --    0.14133   0.14438   0.15027   0.15512   0.15549

 Mulliken charges:
               1
     1  C   -0.306410
     2  C   -0.307809
     3  C   -0.310932
     4  C   -0.059980
     5  C    0.063918
     6  C   -0.307014
     7  H    0.175574
     8  H    0.163266
     9  H    0.166815
    10  H    0.150992
    11  H    0.165011
    12  H    0.206964
    13  H    0.175013
    14  H    0.193131
    15  H    0.161081
    16  H    0.156216
    17  N   -0.437497
    18  C    0.078246
    19  C    0.078673
    20  C   -0.208335
    21  H    0.203059
    22  C   -0.219988
    23  H    0.243159
    24  C    0.449777
    25  H    0.192036
    26  H    0.209785
    27  N   -0.518561
    28  C   -0.166258
    29  H    0.166870
    30  H    0.222248
    31  C   -0.145974
    32  H    0.160348
    33  H    0.205583
    34  N   -0.807859
    35  S    1.239113
    36  O   -0.603153
    37  O   -0.591222
    38  C    0.050969
    39  C   -0.196064
    40  C   -0.192379
    41  C   -0.172246
    42  C   -0.165476
    43  C   -0.205052
    44  H    0.233011
    45  H    0.141878
    46  H    0.156197
    47  H    0.159770
    48  H    0.154050
    49  O   -0.593016
    50  H    0.448029
    51  C    0.716676
    52  O   -0.695177
    53  O   -0.704735
    54  H    0.431993
    55  C   -0.340665
    56  H    0.143213
    57  H    0.150648
    58  C   -0.082052
    59  H    0.132073
    60  H    0.156416
    61  C   -0.665935
    62  H    0.269076
    63  H    0.200229
    64  H    0.222619
    65  C   -0.285291
    66  H    0.142174
    67  H    0.140135
    68  C   -0.474621
    69  H    0.148017
    70  H    0.149456
    71  H    0.148196
    72  C   -0.333903
    73  H    0.184602
    74  H    0.159895
    75  C   -0.338472
    76  H    0.204740
    77  H    0.165136
 Sum of Mulliken charges =  -0.00000

 Dipole moment (field-independent basis, Debye):
    X=             -3.6195    Y=             -1.6264    Z=             -5.7187  Tot=              6.9605
 Quadrupole moment (field-independent basis, Debye-Ang):
   XX=           -208.6825   YY=           -222.2215   ZZ=           -218.4307
   XY=            -13.3300   XZ=             -4.0914   YZ=             10.7516

 Normal termination of Gaussian 16 at Thu Feb  7 10:29:14 2019.
