 Gaussian 16, Revision A.03,
 Gaussian 16:  ES64L-G16RevA.03 25-Dec-2016

 ------------------------------------------
 #p M062X/6-31G* em=gd3 force int=ultrafine
 ------------------------------------------

 -----
 Title
 -----
 Symbolic Z-matrix:
 Charge =  0 Multiplicity = 1

                         Standard orientation:
 ---------------------------------------------------------------------
 Center     Atomic      Atomic             Coordinates (Angstroms)
 Number     Number       Type             X           Y           Z
 ---------------------------------------------------------------------
      1          6           0       -4.851978    0.541781   -0.527199
      2          6           0       -5.029369   -0.732755   -1.357495
      3          6           0       -3.689897   -1.190175   -1.947601
      4          6           0       -2.701378   -1.435132   -0.811856
      5          6           0       -2.494918   -0.145654    0.019360
      6          6           0       -3.828852    0.341097    0.593829
      7          1           0       -3.806728   -2.098106   -2.548759
      8          1           0       -5.438437   -1.530990   -0.724319
      9          1           0       -5.747608   -0.566288   -2.166330
     10          1           0       -4.507234    1.352970   -1.183066
     11          1           0       -5.812665    0.854532   -0.105739
     12          1           0       -3.093743   -2.216264   -0.152587
     13          1           0       -2.136140    0.623477   -0.677071
     14          1           0       -4.200662   -0.386794    1.323193
     15          1           0       -3.644540    1.285249    1.119196
     16          1           0       -3.318711   -0.394588   -2.607561
     17          7           0       -1.372426   -1.909078   -1.254096
     18          6           0       -0.686169   -1.241982   -2.219765
     19          6           0       -0.679551   -2.724922   -0.416197
     20          6           0        0.664502   -1.339323   -2.354001
     21          1           0       -1.273135   -0.600030   -2.863851
     22          6           0        0.672764   -2.861969   -0.478152
     23          1           0       -1.266176   -3.222929    0.347974
     24          6           0        1.423705   -2.082886   -1.401242
     25          1           0        1.152683   -0.780306   -3.141226
     26          1           0        1.155163   -3.482211    0.263941
     27          7           0        2.751381   -2.059809   -1.377616
     28          6           0        3.489583   -2.585498   -0.218306
     29          1           0        3.342150   -3.665094   -0.123116
     30          1           0        3.124736   -2.065564    0.678702
     31          6           0        3.525172   -1.014675   -2.070187
     32          1           0        3.778821   -1.349284   -3.083873
     33          1           0        2.937091   -0.094977   -2.101337
     34          7           0       -1.411795   -0.288022    0.975569
     35         16           0       -1.439086   -1.182605    2.337796
     36          8           0       -2.668748   -1.977777    2.309930
     37          8           0       -0.164025   -1.887874    2.471632
     38          6           0       -0.533668    2.685784   -0.062494
     39          6           0       -0.032798    2.070821   -1.217737
     40          6           0       -0.739093    2.155733   -2.417117
     41          6           0       -1.960358    2.826626   -2.482165
     42          6           0       -2.471401    3.425535   -1.332104
     43          6           0       -1.757812    3.356231   -0.135925
     44          1           0        0.886374    1.489522   -1.134279
     45          1           0       -0.328328    1.695109   -3.313571
     46          1           0       -2.505643    2.888996   -3.419809
     47          1           0       -3.422852    3.949005   -1.366740
     48          1           0       -2.161646    3.827879    0.757791
     49          8           0        0.656549    1.354367    1.645210
     50          1           0       -0.540794    0.270604    0.894856
     51          6           0        2.053868    0.727761    1.190970
     52          8           0        1.931302    0.177860    0.037005
     53          8           0        2.248144   -0.157269    2.270166
     54          1           0        1.565316   -0.844901    2.167128
     55          6           0        3.116361    1.831406    1.345339
     56          1           0        2.861224    2.488152    2.186403
     57          1           0        4.043197    1.318936    1.634477
     58          6           0        0.226183    2.627753    1.257757
     59          1           0       -0.448689    3.000879    2.044270
     60          1           0        1.065586    3.337380    1.221762
     61          6           0       -1.487861    0.005472    3.661067
     62          1           0       -0.605730    0.638244    3.520724
     63          1           0       -2.413376    0.577448    3.579756
     64          1           0       -1.442074   -0.538601    4.605739
     65          6           0        3.373331    2.634973    0.072714
     66          1           0        3.710979    1.949728   -0.713118
     67          1           0        2.443276    3.072742   -0.308885
     68          6           0        4.403908    3.739809    0.292523
     69          1           0        4.609013    4.293859   -0.628726
     70          1           0        4.053116    4.456729    1.043452
     71          1           0        5.350974    3.324753    0.655007
     72          6           0        4.932806   -2.201919   -0.523058
     73          1           0        5.542590   -2.166362    0.381611
     74          1           0        5.380259   -2.921365   -1.218120
     75          6           0        4.761307   -0.834932   -1.186681
     76          1           0        4.515724   -0.093895   -0.420747
     77          1           0        5.635793   -0.505822   -1.752088
 ---------------------------------------------------------------------

 SCF Done:  E(RM062X) =  -1991.35553470     A.U. after   15 cycles

 The electronic state is 1-A.
 Alpha  occ. eigenvalues --  -90.14695 -19.62351 -19.62037 -19.58513 -19.57171
 Alpha  occ. eigenvalues --  -19.50826 -14.85172 -14.80049 -14.76377 -10.63158
 Alpha  occ. eigenvalues --  -10.62605 -10.62327 -10.62120 -10.61069 -10.59841
 Alpha  occ. eigenvalues --  -10.57780 -10.57756 -10.57662 -10.57018 -10.56969
 Alpha  occ. eigenvalues --  -10.56871 -10.56375 -10.55861 -10.55121 -10.55072
 Alpha  occ. eigenvalues --  -10.55042 -10.54888 -10.54686 -10.54680 -10.54675
 Alpha  occ. eigenvalues --  -10.54444 -10.54058 -10.53122 -10.51111 -10.51006
 Alpha  occ. eigenvalues --  -10.49626  -8.45669  -6.37896  -6.37845  -6.37720
 Alpha  occ. eigenvalues --   -1.22491  -1.13443  -1.12812  -1.10692  -1.08882
 Alpha  occ. eigenvalues --   -1.06002  -1.02367  -1.00261  -0.95816  -0.95213
 Alpha  occ. eigenvalues --   -0.93468  -0.90111  -0.88568  -0.86512  -0.85397
 Alpha  occ. eigenvalues --   -0.84899  -0.84847  -0.83725  -0.83315  -0.83038
 Alpha  occ. eigenvalues --   -0.76562  -0.76029  -0.75552  -0.74180  -0.73235
 Alpha  occ. eigenvalues --   -0.71745  -0.68230  -0.68129  -0.67748  -0.67481
 Alpha  occ. eigenvalues --   -0.66415  -0.65481  -0.64882  -0.63328  -0.60522
 Alpha  occ. eigenvalues --   -0.60375  -0.59947  -0.59397  -0.57950  -0.57684
 Alpha  occ. eigenvalues --   -0.57151  -0.56375  -0.55640  -0.55062  -0.54381
 Alpha  occ. eigenvalues --   -0.53550  -0.53052  -0.52654  -0.52442  -0.52162
 Alpha  occ. eigenvalues --   -0.51670  -0.50823  -0.50127  -0.49928  -0.49372
 Alpha  occ. eigenvalues --   -0.49241  -0.48915  -0.48508  -0.48198  -0.48029
 Alpha  occ. eigenvalues --   -0.47703  -0.47645  -0.47156  -0.46213  -0.45835
 Alpha  occ. eigenvalues --   -0.45347  -0.45177  -0.44391  -0.44074  -0.43186
 Alpha  occ. eigenvalues --   -0.42465  -0.42336  -0.41204  -0.40878  -0.40752
 Alpha  occ. eigenvalues --   -0.40657  -0.40399  -0.40150  -0.39844  -0.39428
 Alpha  occ. eigenvalues --   -0.39107  -0.38923  -0.38717  -0.38296  -0.37751
 Alpha  occ. eigenvalues --   -0.37451  -0.36524  -0.36441  -0.36032  -0.35033
 Alpha  occ. eigenvalues --   -0.34569  -0.34300  -0.31869  -0.31281  -0.30014
 Alpha  occ. eigenvalues --   -0.29275  -0.28807  -0.27782  -0.24439  -0.24086
 Alpha virt. eigenvalues --   -0.01235   0.00582   0.03207   0.03588   0.10168
 Alpha virt. eigenvalues --    0.10594   0.11357   0.12562   0.13165   0.13329
 Alpha virt. eigenvalues --    0.14155   0.14414   0.15070   0.15534   0.15536

 Mulliken charges:
               1
     1  C   -0.306559
     2  C   -0.307791
     3  C   -0.311425
     4  C   -0.060633
     5  C    0.065592
     6  C   -0.306837
     7  H    0.175408
     8  H    0.163246
     9  H    0.166741
    10  H    0.151623
    11  H    0.164856
    12  H    0.207603
    13  H    0.174300
    14  H    0.192176
    15  H    0.160376
    16  H    0.156577
    17  N   -0.437285
    18  C    0.080453
    19  C    0.081096
    20  C   -0.210945
    21  H    0.202813
    22  C   -0.221361
    23  H    0.243917
    24  C    0.448823
    25  H    0.192063
    26  H    0.209714
    27  N   -0.518302
    28  C   -0.164381
    29  H    0.167213
    30  H    0.220200
    31  C   -0.145153
    32  H    0.160432
    33  H    0.205402
    34  N   -0.812663
    35  S    1.237477
    36  O   -0.603996
    37  O   -0.591775
    38  C    0.049266
    39  C   -0.197386
    40  C   -0.192703
    41  C   -0.172549
    42  C   -0.165189
    43  C   -0.205341
    44  H    0.235399
    45  H    0.141236
    46  H    0.156262
    47  H    0.159874
    48  H    0.154395
    49  O   -0.603677
    50  H    0.451416
    51  C    0.714511
    52  O   -0.684498
    53  O   -0.700820
    54  H    0.432743
    55  C   -0.339809
    56  H    0.144265
    57  H    0.151012
    58  C   -0.078968
    59  H    0.129983
    60  H    0.156152
    61  C   -0.666385
    62  H    0.266564
    63  H    0.200345
    64  H    0.223138
    65  C   -0.285105
    66  H    0.142969
    67  H    0.140713
    68  C   -0.475184
    69  H    0.148437
    70  H    0.149067
    71  H    0.148795
    72  C   -0.334181
    73  H    0.184232
    74  H    0.160113
    75  C   -0.338536
    76  H    0.205719
    77  H    0.164735
 Sum of Mulliken charges =  -0.00000

 Dipole moment (field-independent basis, Debye):
    X=             -3.5243    Y=             -1.4757    Z=             -5.7206  Tot=              6.8792
 Quadrupole moment (field-independent basis, Debye-Ang):
   XX=           -208.4233   YY=           -222.7276   ZZ=           -218.1213
   XY=            -13.5283   XZ=             -4.2432   YZ=             10.7891

 Normal termination of Gaussian 16 at Thu Feb  7 09:27:23 2019.
