 Gaussian 16, Revision A.03,
 Gaussian 16:  ES64L-G16RevA.03 25-Dec-2016

 ------------------------------------------
 #p M062X/6-31G* em=gd3 force int=ultrafine
 ------------------------------------------

 -----
 Title
 -----
 Symbolic Z-matrix:
 Charge =  0 Multiplicity = 1

                         Standard orientation:
 ---------------------------------------------------------------------
 Center     Atomic      Atomic             Coordinates (Angstroms)
 Number     Number       Type             X           Y           Z
 ---------------------------------------------------------------------
      1          6           0       -4.782637    0.248044   -0.742611
      2          6           0       -4.887549   -1.086622   -1.486499
      3          6           0       -3.517711   -1.521047   -2.021263
      4          6           0       -2.547652   -1.633582   -0.850694
      5          6           0       -2.398909   -0.273202   -0.120233
      6          6           0       -3.767746    0.178922    0.402642
      7          1           0       -3.580785   -2.475603   -2.554836
      8          1           0       -5.271267   -1.858800   -0.806931
      9          1           0       -5.597657   -1.008468   -2.315757
     10          1           0       -4.473446    1.029303   -1.449342
     11          1           0       -5.763616    0.537875   -0.352053
     12          1           0       -2.927644   -2.370696   -0.136380
     13          1           0       -2.075509    0.458782   -0.871868
     14          1           0       -4.118227   -0.520367    1.168675
     15          1           0       -3.647824    1.163162    0.867003
     16          1           0       -3.170740   -0.759928   -2.733034
     17          7           0       -1.191937   -2.090427   -1.219790
     18          6           0       -0.506385   -1.473699   -2.217681
     19          6           0       -0.492599   -2.787584   -0.283869
     20          6           0        0.852152   -1.500017   -2.289238
     21          1           0       -1.102076   -0.932950   -2.942478
     22          6           0        0.866542   -2.831648   -0.270077
     23          1           0       -1.085422   -3.252090    0.496545
     24          6           0        1.603402   -2.080646   -1.224378
     25          1           0        1.341443   -0.992031   -3.108897
     26          1           0        1.353055   -3.339398    0.550817
     27          7           0        2.921319   -1.936757   -1.134241
     28          6           0        3.647046   -2.253537    0.106095
     29          1           0        3.550276   -3.315795    0.347503
     30          1           0        3.227085   -1.639135    0.916890
     31          6           0        3.642085   -0.944372   -1.940051
     32          1           0        3.892032   -1.367270   -2.920925
     33          1           0        3.006355   -0.064205   -2.072938
     34          7           0       -1.321646   -0.278642    0.856805
     35         16           0       -1.417576   -1.053608    2.285706
     36          8           0       -2.595668   -1.926857    2.269828
     37          8           0       -0.121506   -1.675274    2.573852
     38          6           0       -0.671517    2.711089    0.004639
     39          6           0       -0.203345    2.248385   -1.234926
     40          6           0       -1.012334    2.306673   -2.367451
     41          6           0       -2.308738    2.817627   -2.293408
     42          6           0       -2.789643    3.268873   -1.068243
     43          6           0       -1.972384    3.217322    0.061588
     44          1           0        0.777966    1.792005   -1.284149
     45          1           0       -0.622649    1.955470   -3.320136
     46          1           0       -2.934500    2.867005   -3.180324
     47          1           0       -3.798075    3.666588   -0.989078
     48          1           0       -2.354937    3.585625    1.011508
     49          8           0        0.661391    1.633140    1.877166
     50          1           0       -0.323083   -0.040192    0.555823
     51          6           0        1.772287    0.876090    1.233847
     52          8           0        1.338643    0.252381    0.156334
     53          8           0        2.169708    0.011558    2.283556
     54          1           0        1.447244   -0.637064    2.370671
     55          6           0        2.994919    1.817954    1.061596
     56          1           0        2.983779    2.558849    1.871277
     57          1           0        3.875005    1.190448    1.251332
     58          6           0        0.199346    2.804252    1.260423
     59          1           0       -0.404483    3.312473    2.023260
     60          1           0        1.040808    3.477915    1.042651
     61          6           0       -1.655456    0.225188    3.497727
     62          1           0       -0.795746    0.894133    3.401195
     63          1           0       -2.591521    0.738733    3.270153
     64          1           0       -1.698439   -0.248191    4.480326
     65          6           0        3.171690    2.502332   -0.290730
     66          1           0        3.087522    1.748043   -1.081196
     67          1           0        2.368173    3.221121   -0.485155
     68          6           0        4.515838    3.222095   -0.392073
     69          1           0        4.644638    3.706646   -1.364999
     70          1           0        4.604068    3.992526    0.381361
     71          1           0        5.348941    2.523674   -0.250517
     72          6           0        5.081268   -1.856814   -0.228985
     73          1           0        5.666305   -1.650718    0.669263
     74          1           0        5.574463   -2.658354   -0.789610
     75          6           0        4.888683   -0.619780   -1.110702
     76          1           0        4.676966    0.246309   -0.478966
     77          1           0        5.754128   -0.390279   -1.735961
 ---------------------------------------------------------------------

 SCF Done:  E(RM062X) =  -1991.35899881     A.U. after   14 cycles

 The electronic state is 1-A.
 Alpha  occ. eigenvalues --  -90.14023 -19.61635 -19.61632 -19.58820 -19.56745
 Alpha  occ. eigenvalues --  -19.51396 -14.85103 -14.80463 -14.75395 -10.63358
 Alpha  occ. eigenvalues --  -10.62726 -10.62333 -10.62017 -10.60630 -10.59174
 Alpha  occ. eigenvalues --  -10.58799 -10.57865 -10.57864 -10.57019 -10.56844
 Alpha  occ. eigenvalues --  -10.56650 -10.55594 -10.55586 -10.55236 -10.55121
 Alpha  occ. eigenvalues --  -10.54695 -10.54695 -10.54583 -10.54416 -10.54268
 Alpha  occ. eigenvalues --  -10.54190 -10.54134 -10.53076 -10.51707 -10.51596
 Alpha  occ. eigenvalues --  -10.49820  -8.45002  -6.37217  -6.37197  -6.37040
 Alpha  occ. eigenvalues --   -1.21855  -1.13689  -1.13432  -1.10098  -1.09363
 Alpha  occ. eigenvalues --   -1.05905  -1.01547  -0.99444  -0.95654  -0.94880
 Alpha  occ. eigenvalues --   -0.93446  -0.90201  -0.88757  -0.85937  -0.85798
 Alpha  occ. eigenvalues --   -0.84749  -0.84612  -0.84367  -0.82961  -0.82574
 Alpha  occ. eigenvalues --   -0.76627  -0.76383  -0.75825  -0.74381  -0.72679
 Alpha  occ. eigenvalues --   -0.71533  -0.68363  -0.68297  -0.67873  -0.67123
 Alpha  occ. eigenvalues --   -0.66743  -0.65159  -0.64855  -0.63518  -0.60566
 Alpha  occ. eigenvalues --   -0.60404  -0.59789  -0.58780  -0.57864  -0.57519
 Alpha  occ. eigenvalues --   -0.57105  -0.56409  -0.55658  -0.55163  -0.54165
 Alpha  occ. eigenvalues --   -0.53410  -0.52608  -0.52372  -0.52325  -0.51826
 Alpha  occ. eigenvalues --   -0.51502  -0.51105  -0.50950  -0.49834  -0.49582
 Alpha  occ. eigenvalues --   -0.49162  -0.48793  -0.48216  -0.48104  -0.48045
 Alpha  occ. eigenvalues --   -0.47600  -0.47410  -0.46882  -0.46465  -0.46080
 Alpha  occ. eigenvalues --   -0.44940  -0.44626  -0.44045  -0.43861  -0.43239
 Alpha  occ. eigenvalues --   -0.42412  -0.42066  -0.41617  -0.41451  -0.41221
 Alpha  occ. eigenvalues --   -0.40868  -0.40423  -0.40022  -0.39871  -0.39570
 Alpha  occ. eigenvalues --   -0.39225  -0.39033  -0.38398  -0.37848  -0.37574
 Alpha  occ. eigenvalues --   -0.37330  -0.36730  -0.36552  -0.35659  -0.34866
 Alpha  occ. eigenvalues --   -0.34319  -0.33855  -0.31794  -0.30923  -0.29657
 Alpha  occ. eigenvalues --   -0.28874  -0.28490  -0.27520  -0.25000  -0.24533
 Alpha virt. eigenvalues --   -0.01343   0.00546   0.03681   0.03904   0.10268
 Alpha virt. eigenvalues --    0.11073   0.11498   0.12055   0.13212   0.13526
 Alpha virt. eigenvalues --    0.14259   0.14684   0.14852   0.15430   0.15605

 Mulliken charges:
               1
     1  C   -0.306042
     2  C   -0.306808
     3  C   -0.310671
     4  C   -0.058575
     5  C    0.056331
     6  C   -0.311524
     7  H    0.173748
     8  H    0.162968
     9  H    0.164947
    10  H    0.150168
    11  H    0.162808
    12  H    0.208279
    13  H    0.172154
    14  H    0.194080
    15  H    0.163235
    16  H    0.153465
    17  N   -0.433725
    18  C    0.071141
    19  C    0.065787
    20  C   -0.206687
    21  H    0.207244
    22  C   -0.209892
    23  H    0.245854
    24  C    0.453828
    25  H    0.190500
    26  H    0.211744
    27  N   -0.531178
    28  C   -0.178590
    29  H    0.169978
    30  H    0.240382
    31  C   -0.154267
    32  H    0.169065
    33  H    0.199866
    34  N   -0.817458
    35  S    1.254453
    36  O   -0.611206
    37  O   -0.610141
    38  C    0.094136
    39  C   -0.176096
    40  C   -0.188528
    41  C   -0.170168
    42  C   -0.163481
    43  C   -0.212056
    44  H    0.200787
    45  H    0.141890
    46  H    0.154264
    47  H    0.157783
    48  H    0.151455
    49  O   -0.547667
    50  H    0.449911
    51  C    0.729030
    52  O   -0.724282
    53  O   -0.718301
    54  H    0.446120
    55  C   -0.337125
    56  H    0.150562
    57  H    0.146642
    58  C   -0.096275
    59  H    0.141451
    60  H    0.146501
    61  C   -0.662423
    62  H    0.269437
    63  H    0.196312
    64  H    0.217243
    65  C   -0.295830
    66  H    0.142245
    67  H    0.147212
    68  C   -0.476858
    69  H    0.149683
    70  H    0.156536
    71  H    0.144209
    72  C   -0.332036
    73  H    0.187468
    74  H    0.164039
    75  C   -0.344793
    76  H    0.193402
    77  H    0.172335
 Sum of Mulliken charges =  -0.00000

 Dipole moment (field-independent basis, Debye):
    X=             -1.8789    Y=             -2.0973    Z=             -6.4899  Tot=              7.0744
 Quadrupole moment (field-independent basis, Debye-Ang):
   XX=           -204.2102   YY=           -222.9579   ZZ=           -220.2039
   XY=            -12.1052   XZ=             -4.9350   YZ=             10.4368

 Normal termination of Gaussian 16 at Thu Feb  7 18:11:21 2019.
