 Gaussian 16, Revision A.03,
 Gaussian 16:  ES64L-G16RevA.03 25-Dec-2016

 ------------------------------------------
 #p M062X/6-31G* em=gd3 force int=ultrafine
 ------------------------------------------

 -----
 Title
 -----
 Symbolic Z-matrix:
 Charge =  0 Multiplicity = 1

                         Standard orientation:
 ---------------------------------------------------------------------
 Center     Atomic      Atomic             Coordinates (Angstroms)
 Number     Number       Type             X           Y           Z
 ---------------------------------------------------------------------
      1          6           0       -4.843794    0.436012   -0.514344
      2          6           0       -4.991130   -0.836305   -1.353870
      3          6           0       -3.639622   -1.257917   -1.942938
      4          6           0       -2.649488   -1.484882   -0.804539
      5          6           0       -2.465927   -0.195771    0.036075
      6          6           0       -3.816853    0.252831    0.607586
      7          1           0       -3.733949   -2.165171   -2.549664
      8          1           0       -5.383625   -1.648617   -0.728092
      9          1           0       -5.710642   -0.680937   -2.164119
     10          1           0       -4.517367    1.258815   -1.165195
     11          1           0       -5.812895    0.723730   -0.093808
     12          1           0       -3.025485   -2.278779   -0.151370
     13          1           0       -2.133458    0.583579   -0.662749
     14          1           0       -4.172575   -0.488954    1.331618
     15          1           0       -3.659702    1.198846    1.138582
     16          1           0       -3.287127   -0.449347   -2.597433
     17          7           0       -1.309354   -1.930336   -1.248899
     18          6           0       -0.641029   -1.250896   -2.214523
     19          6           0       -0.602029   -2.734172   -0.415204
     20          6           0        0.712034   -1.329183   -2.358038
     21          1           0       -1.240693   -0.613650   -2.851487
     22          6           0        0.753505   -2.854186   -0.487828
     23          1           0       -1.176734   -3.238899    0.353713
     24          6           0        1.485413   -2.068685   -1.416885
     25          1           0        1.185904   -0.759735   -3.146591
     26          1           0        1.248062   -3.466624    0.252895
     27          7           0        2.817794   -2.021038   -1.397046
     28          6           0        3.565531   -2.536592   -0.240372
     29          1           0        3.447936   -3.620347   -0.154491
     30          1           0        3.183735   -2.046430    0.666256
     31          6           0        3.569560   -0.956910   -2.085251
     32          1           0        3.834256   -1.281806   -3.098658
     33          1           0        2.962981   -0.049140   -2.125574
     34          7           0       -1.363849   -0.322910    0.974247
     35         16           0       -1.404007   -1.221478    2.324285
     36          8           0       -2.584670   -2.092676    2.280738
     37          8           0       -0.094661   -1.869448    2.491184
     38          6           0       -0.672724    2.747230   -0.066681
     39          6           0       -0.120370    2.103603   -1.183355
     40          6           0       -0.779714    2.145058   -2.410856
     41          6           0       -2.013135    2.787304   -2.535854
     42          6           0       -2.578064    3.404268   -1.421766
     43          6           0       -1.904650    3.386086   -0.201809
     44          1           0        0.804787    1.540699   -1.063225
     45          1           0       -0.330221    1.670520   -3.281586
     46          1           0       -2.527209    2.812555   -3.492300
     47          1           0       -3.540704    3.901192   -1.499553
     48          1           0       -2.344292    3.864448    0.670721
     49          8           0        0.428496    1.417754    1.624318
     50          1           0       -0.567995    0.435809    1.065014
     51          6           0        2.224561    0.647776    1.178860
     52          8           0        2.041467    0.157168    0.059784
     53          8           0        2.226090   -0.132668    2.290264
     54          1           0        1.532767   -0.814957    2.176487
     55          6           0        3.084516    1.881509    1.387521
     56          1           0        2.680479    2.485150    2.206487
     57          1           0        4.055321    1.500383    1.736167
     58          6           0        0.022017    2.687746    1.286739
     59          1           0       -0.678304    3.096506    2.040680
     60          1           0        0.873508    3.397519    1.271647
     61          6           0       -1.531454   -0.047433    3.657693
     62          1           0       -0.692801    0.642030    3.510626
     63          1           0       -2.489304    0.468862    3.575520
     64          1           0       -1.453913   -0.588261    4.602010
     65          6           0        3.294391    2.709490    0.122950
     66          1           0        3.674401    2.055795   -0.670996
     67          1           0        2.336764    3.094172   -0.245214
     68          6           0        4.261425    3.868226    0.355718
     69          1           0        4.436512    4.438214   -0.561725
     70          1           0        3.871336    4.559950    1.110243
     71          1           0        5.230156    3.502693    0.714399
     72          6           0        4.999886   -2.110538   -0.532715
     73          1           0        5.602437   -2.059751    0.376128
     74          1           0        5.471222   -2.816858   -1.224583
     75          6           0        4.801184   -0.748692   -1.200201
     76          1           0        4.550943   -0.005187   -0.438198
     77          1           0        5.669447   -0.405284   -1.766236
 ---------------------------------------------------------------------

 SCF Done:  E(RM062X) =  -1991.35730191     A.U. after   15 cycles

 The electronic state is 1-A.
 Alpha  occ. eigenvalues --  -90.13522 -19.61415 -19.61140 -19.60665 -19.56068
 Alpha  occ. eigenvalues --  -19.54102 -14.85329 -14.80497 -14.74326 -10.64196
 Alpha  occ. eigenvalues --  -10.63491 -10.62806 -10.62273 -10.60678 -10.58975
 Alpha  occ. eigenvalues --  -10.58585 -10.58491 -10.58042 -10.57227 -10.56542
 Alpha  occ. eigenvalues --  -10.55480 -10.55444 -10.55386 -10.55019 -10.54990
 Alpha  occ. eigenvalues --  -10.54575 -10.54568 -10.54497 -10.54451 -10.54056
 Alpha  occ. eigenvalues --  -10.53823 -10.53423 -10.52936 -10.52001 -10.51787
 Alpha  occ. eigenvalues --  -10.51465  -8.44524  -6.36745  -6.36689  -6.36583
 Alpha  occ. eigenvalues --   -1.21305  -1.15707  -1.13546  -1.09557  -1.09364
 Alpha  occ. eigenvalues --   -1.05997  -1.03636  -1.00645  -0.95650  -0.94533
 Alpha  occ. eigenvalues --   -0.93401  -0.90290  -0.88809  -0.86694  -0.85647
 Alpha  occ. eigenvalues --   -0.84604  -0.84404  -0.83759  -0.82806  -0.82227
 Alpha  occ. eigenvalues --   -0.77571  -0.76730  -0.75861  -0.72491  -0.71954
 Alpha  occ. eigenvalues --   -0.71481  -0.68460  -0.68357  -0.67804  -0.67208
 Alpha  occ. eigenvalues --   -0.66563  -0.64925  -0.64219  -0.63336  -0.61226
 Alpha  occ. eigenvalues --   -0.60415  -0.60109  -0.58838  -0.58150  -0.57330
 Alpha  occ. eigenvalues --   -0.56784  -0.56380  -0.55115  -0.54321  -0.53800
 Alpha  occ. eigenvalues --   -0.53350  -0.52615  -0.52381  -0.52111  -0.51915
 Alpha  occ. eigenvalues --   -0.51479  -0.51172  -0.50813  -0.50226  -0.49893
 Alpha  occ. eigenvalues --   -0.49685  -0.48715  -0.48408  -0.48205  -0.47827
 Alpha  occ. eigenvalues --   -0.47458  -0.47206  -0.47095  -0.46303  -0.46142
 Alpha  occ. eigenvalues --   -0.45581  -0.45005  -0.44651  -0.43671  -0.43259
 Alpha  occ. eigenvalues --   -0.42472  -0.42277  -0.41725  -0.41627  -0.41195
 Alpha  occ. eigenvalues --   -0.41069  -0.40513  -0.40015  -0.39878  -0.39615
 Alpha  occ. eigenvalues --   -0.39468  -0.38746  -0.38286  -0.38059  -0.37748
 Alpha  occ. eigenvalues --   -0.37674  -0.37370  -0.36829  -0.36162  -0.35365
 Alpha  occ. eigenvalues --   -0.34731  -0.34041  -0.33014  -0.30003  -0.29371
 Alpha  occ. eigenvalues --   -0.28967  -0.28535  -0.28081  -0.25932  -0.24666
 Alpha virt. eigenvalues --   -0.01481   0.00331   0.03699   0.04374   0.10212
 Alpha virt. eigenvalues --    0.11048   0.11449   0.11963   0.13041   0.13432
 Alpha virt. eigenvalues --    0.13966   0.14001   0.14824   0.15361   0.15399

 Mulliken charges:
               1
     1  C   -0.306857
     2  C   -0.306900
     3  C   -0.311595
     4  C   -0.064567
     5  C    0.069488
     6  C   -0.307162
     7  H    0.172568
     8  H    0.162391
     9  H    0.164976
    10  H    0.152469
    11  H    0.162886
    12  H    0.209182
    13  H    0.169912
    14  H    0.188174
    15  H    0.161130
    16  H    0.156561
    17  N   -0.432142
    18  C    0.089705
    19  C    0.089787
    20  C   -0.218629
    21  H    0.206360
    22  C   -0.225415
    23  H    0.249601
    24  C    0.435771
    25  H    0.192436
    26  H    0.209201
    27  N   -0.520187
    28  C   -0.161248
    29  H    0.172998
    30  H    0.207677
    31  C   -0.146887
    32  H    0.166351
    33  H    0.201617
    34  N   -0.819218
    35  S    1.243331
    36  O   -0.611777
    37  O   -0.616835
    38  C    0.056932
    39  C   -0.196273
    40  C   -0.190686
    41  C   -0.175700
    42  C   -0.162503
    43  C   -0.206536
    44  H    0.215442
    45  H    0.135529
    46  H    0.152925
    47  H    0.157178
    48  H    0.153824
    49  O   -0.681348
    50  H    0.455770
    51  C    0.675972
    52  O   -0.578689
    53  O   -0.662340
    54  H    0.458697
    55  C   -0.346507
    56  H    0.179173
    57  H    0.153725
    58  C   -0.039060
    59  H    0.098150
    60  H    0.118451
    61  C   -0.671329
    62  H    0.267113
    63  H    0.197362
    64  H    0.217152
    65  C   -0.290416
    66  H    0.141463
    67  H    0.158902
    68  C   -0.477926
    69  H    0.153764
    70  H    0.155831
    71  H    0.148616
    72  C   -0.334712
    73  H    0.184916
    74  H    0.165206
    75  C   -0.336534
    76  H    0.193519
    77  H    0.169793
 Sum of Mulliken charges =  -0.00000

 Dipole moment (field-independent basis, Debye):
    X=             -1.0956    Y=             -2.0810    Z=             -6.1095  Tot=              6.5465
 Quadrupole moment (field-independent basis, Debye-Ang):
   XX=           -202.4232   YY=           -225.3892   ZZ=           -219.4880
   XY=            -11.9756   XZ=             -2.5828   YZ=             10.5076

 Normal termination of Gaussian 16 at Thu Feb  7 19:12:11 2019.
