 Gaussian 16, Revision A.03,
 Gaussian 16:  ES64L-G16RevA.03 25-Dec-2016

 ------------------------------------------
 #p M062X/6-31G* em=gd3 force int=ultrafine
 ------------------------------------------

 -----
 Title
 -----
 Symbolic Z-matrix:
 Charge =  0 Multiplicity = 1

                         Standard orientation:
 ---------------------------------------------------------------------
 Center     Atomic      Atomic             Coordinates (Angstroms)
 Number     Number       Type             X           Y           Z
 ---------------------------------------------------------------------
      1          6           0       -4.865949    0.250582   -0.464651
      2          6           0       -4.972972   -1.037229   -1.286708
      3          6           0       -3.609733   -1.424843   -1.873092
      4          6           0       -2.608349   -1.590023   -0.733944
      5          6           0       -2.454743   -0.272137    0.078017
      6          6           0       -3.824581    0.119811    0.651137
      7          1           0       -3.678697   -2.346123   -2.462797
      8          1           0       -5.337283   -1.852325   -0.647847
      9          1           0       -5.699115   -0.917472   -2.097623
     10          1           0       -4.569116    1.073501   -1.130337
     11          1           0       -5.844184    0.513058   -0.047951
     12          1           0       -2.948752   -2.381160   -0.058989
     13          1           0       -2.200885    0.496055   -0.668421
     14          1           0       -4.140713   -0.628815    1.388270
     15          1           0       -3.704142    1.076537    1.173306
     16          1           0       -3.289985   -0.617775   -2.546575
     17          7           0       -1.254348   -1.999042   -1.178328
     18          6           0       -0.619936   -1.329095   -2.168751
     19          6           0       -0.516627   -2.753370   -0.329426
     20          6           0        0.734924   -1.377489   -2.331437
     21          1           0       -1.245948   -0.725698   -2.813370
     22          6           0        0.842521   -2.848584   -0.426563
     23          1           0       -1.065690   -3.237815    0.470989
     24          6           0        1.538044   -2.080076   -1.390261
     25          1           0        1.181982   -0.819760   -3.143871
     26          1           0        1.361534   -3.422636    0.328076
     27          7           0        2.876681   -2.003882   -1.395022
     28          6           0        3.650919   -2.489319   -0.244750
     29          1           0        3.578366   -3.577258   -0.159408
     30          1           0        3.255581   -2.031069    0.672606
     31          6           0        3.593815   -0.938462   -2.114095
     32          1           0        3.859479   -1.276498   -3.122905
     33          1           0        2.964341   -0.047066   -2.178416
     34          7           0       -1.328367   -0.288090    0.983059
     35         16           0       -1.313131   -1.188267    2.282609
     36          8           0       -2.370624   -2.222236    2.307135
     37          8           0        0.067675   -1.700970    2.496622
     38          6           0       -0.896684    2.824067   -0.124885
     39          6           0       -0.269792    2.145374   -1.177710
     40          6           0       -0.881959    2.090314   -2.428319
     41          6           0       -2.135056    2.669584   -2.634534
     42          6           0       -2.775458    3.312429   -1.578326
     43          6           0       -2.152840    3.388622   -0.334990
     44          1           0        0.674223    1.632276   -1.001285
     45          1           0       -0.379301    1.588739   -3.252680
     46          1           0       -2.610397    2.620530   -3.609700
     47          1           0       -3.757269    3.754924   -1.716951
     48          1           0       -2.649450    3.885139    0.495204
     49          8           0        0.287186    1.719929    1.682849
     50          1           0       -0.294810    0.972685    1.331843
     51          6           0        2.441853    0.596601    1.168190
     52          8           0        2.091829    0.182842    0.077212
     53          8           0        2.276198   -0.083087    2.297381
     54          1           0        1.545866   -0.749971    2.193866
     55          6           0        3.174365    1.902979    1.367502
     56          1           0        2.639907    2.443304    2.155773
     57          1           0        4.174476    1.680114    1.763339
     58          6           0       -0.248729    2.928770    1.239011
     59          1           0       -0.987811    3.329909    1.951197
     60          1           0        0.577913    3.654863    1.201182
     61          6           0       -1.580244   -0.084335    3.668505
     62          1           0       -0.810935    0.688700    3.599560
     63          1           0       -2.575341    0.355157    3.575916
     64          1           0       -1.487362   -0.647812    4.597756
     65          6           0        3.266246    2.733452    0.091298
     66          1           0        3.671919    2.116697   -0.719448
     67          1           0        2.256661    3.015616   -0.228974
     68          6           0        4.123061    3.982747    0.275778
     69          1           0        4.208623    4.548915   -0.656258
     70          1           0        3.695035    4.647265    1.033722
     71          1           0        5.134831    3.717783    0.601523
     72          6           0        5.069161   -2.009619   -0.539712
     73          1           0        5.661850   -1.909113    0.371793
     74          1           0        5.575741   -2.715240   -1.205860
     75          6           0        4.831658   -0.675511   -1.250835
     76          1           0        4.589069    0.095278   -0.514276
     77          1           0        5.686540   -0.337324   -1.839975
 ---------------------------------------------------------------------

 SCF Done:  E(RM062X) =  -1991.38439614     A.U. after   15 cycles

 The electronic state is 1-A.
 Alpha  occ. eigenvalues --  -90.10250 -19.63558 -19.60222 -19.58836 -19.58364
 Alpha  occ. eigenvalues --  -19.58291 -14.84789 -14.80434 -14.69287 -10.65759
 Alpha  occ. eigenvalues --  -10.63210 -10.62425 -10.61568 -10.59205 -10.59088
 Alpha  occ. eigenvalues --  -10.58924 -10.57827 -10.57371 -10.56768 -10.56705
 Alpha  occ. eigenvalues --  -10.55953 -10.55706 -10.55608 -10.55056 -10.54988
 Alpha  occ. eigenvalues --  -10.54916 -10.54640 -10.54601 -10.54509 -10.53938
 Alpha  occ. eigenvalues --  -10.53591 -10.53459 -10.53419 -10.53402 -10.52856
 Alpha  occ. eigenvalues --  -10.52624  -8.41206  -6.33443  -6.33352  -6.33272
 Alpha  occ. eigenvalues --   -1.19215  -1.17722  -1.12923  -1.10135  -1.09980
 Alpha  occ. eigenvalues --   -1.09075  -1.06009  -0.97528  -0.95343  -0.94741
 Alpha  occ. eigenvalues --   -0.92187  -0.89820  -0.88559  -0.88326  -0.85083
 Alpha  occ. eigenvalues --   -0.84854  -0.83695  -0.83531  -0.83284  -0.80046
 Alpha  occ. eigenvalues --   -0.79380  -0.76316  -0.75615  -0.74667  -0.70941
 Alpha  occ. eigenvalues --   -0.70251  -0.69299  -0.68670  -0.68341  -0.68086
 Alpha  occ. eigenvalues --   -0.65967  -0.64753  -0.63914  -0.63480  -0.61598
 Alpha  occ. eigenvalues --   -0.60267  -0.59365  -0.59090  -0.58355  -0.56157
 Alpha  occ. eigenvalues --   -0.55623  -0.55282  -0.55151  -0.54363  -0.53848
 Alpha  occ. eigenvalues --   -0.53455  -0.53051  -0.52600  -0.51870  -0.51649
 Alpha  occ. eigenvalues --   -0.51074  -0.50946  -0.50618  -0.50027  -0.49827
 Alpha  occ. eigenvalues --   -0.49682  -0.49525  -0.48774  -0.48315  -0.48014
 Alpha  occ. eigenvalues --   -0.47775  -0.47228  -0.47074  -0.46984  -0.45830
 Alpha  occ. eigenvalues --   -0.45574  -0.45189  -0.43954  -0.43693  -0.43466
 Alpha  occ. eigenvalues --   -0.42904  -0.42816  -0.42162  -0.42042  -0.41839
 Alpha  occ. eigenvalues --   -0.41201  -0.40921  -0.40521  -0.39887  -0.39628
 Alpha  occ. eigenvalues --   -0.39381  -0.39327  -0.39045  -0.38400  -0.38064
 Alpha  occ. eigenvalues --   -0.37368  -0.36258  -0.35815  -0.35328  -0.35175
 Alpha  occ. eigenvalues --   -0.34267  -0.32995  -0.31986  -0.31673  -0.31343
 Alpha  occ. eigenvalues --   -0.29943  -0.28817  -0.28331  -0.27328  -0.25343
 Alpha virt. eigenvalues --   -0.01058   0.00679   0.03139   0.03710   0.08793
 Alpha virt. eigenvalues --    0.10166   0.10950   0.11795   0.12956   0.13528
 Alpha virt. eigenvalues --    0.13805   0.14312   0.14984   0.15469   0.15860

 Mulliken charges:
               1
     1  C   -0.303943
     2  C   -0.304270
     3  C   -0.309837
     4  C   -0.072021
     5  C    0.067362
     6  C   -0.304778
     7  H    0.166913
     8  H    0.161293
     9  H    0.159243
    10  H    0.145122
    11  H    0.157001
    12  H    0.209959
    13  H    0.140478
    14  H    0.180651
    15  H    0.150275
    16  H    0.149871
    17  N   -0.424041
    18  C    0.097506
    19  C    0.088916
    20  C   -0.226407
    21  H    0.204591
    22  C   -0.226989
    23  H    0.260716
    24  C    0.426756
    25  H    0.187541
    26  H    0.207791
    27  N   -0.526883
    28  C   -0.159013
    29  H    0.178228
    30  H    0.198180
    31  C   -0.145833
    32  H    0.169589
    33  H    0.194065
    34  N   -0.766119
    35  S    1.247279
    36  O   -0.640340
    37  O   -0.668984
    38  C    0.050982
    39  C   -0.176167
    40  C   -0.188607
    41  C   -0.169518
    42  C   -0.160766
    43  C   -0.199721
    44  H    0.204263
    45  H    0.139593
    46  H    0.157037
    47  H    0.162312
    48  H    0.158385
    49  O   -0.717125
    50  H    0.485675
    51  C    0.661484
    52  O   -0.520600
    53  O   -0.647563
    54  H    0.483542
    55  C   -0.373244
    56  H    0.203096
    57  H    0.166646
    58  C   -0.063106
    59  H    0.126801
    60  H    0.145806
    61  C   -0.662913
    62  H    0.228686
    63  H    0.185667
    64  H    0.206003
    65  C   -0.290338
    66  H    0.146444
    67  H    0.162282
    68  C   -0.480503
    69  H    0.159630
    70  H    0.158670
    71  H    0.151936
    72  C   -0.336349
    73  H    0.184403
    74  H    0.169714
    75  C   -0.335638
    76  H    0.180410
    77  H    0.172820
 Sum of Mulliken charges =  -0.00000

 Dipole moment (field-independent basis, Debye):
    X=              1.6166    Y=             -0.0191    Z=             -6.7236  Tot=              6.9152
 Quadrupole moment (field-independent basis, Debye-Ang):
   XX=           -199.7516   YY=           -222.4299   ZZ=           -222.8048
   XY=            -11.5677   XZ=              0.4672   YZ=             12.9273

 Normal termination of Gaussian 16 at Thu Feb  7 22:14:29 2019.
