 Gaussian 16, Revision A.03,
 Gaussian 16:  ES64L-G16RevA.03 25-Dec-2016

 ------------------------------------------
 #p M062X/6-31G* em=gd3 force int=ultrafine
 ------------------------------------------

 -----
 Title
 -----
 Symbolic Z-matrix:
 Charge =  0 Multiplicity = 1

                         Standard orientation:
 ---------------------------------------------------------------------
 Center     Atomic      Atomic             Coordinates (Angstroms)
 Number     Number       Type             X           Y           Z
 ---------------------------------------------------------------------
      1          6           0       -4.781588    0.418469   -0.540195
      2          6           0       -4.969551   -0.867602   -1.350543
      3          6           0       -3.642587   -1.320744   -1.972047
      4          6           0       -2.628929   -1.534281   -0.854004
      5          6           0       -2.394902   -0.222198   -0.060979
      6          6           0       -3.717838    0.253098    0.549877
      7          1           0       -3.767012   -2.241315   -2.552271
      8          1           0       -5.351831   -1.663048   -0.697424
      9          1           0       -5.712806   -0.717064   -2.139757
     10          1           0       -4.476184    1.226500   -1.217714
     11          1           0       -5.732286    0.719611   -0.088262
     12          1           0       -3.006975   -2.295010   -0.164161
     13          1           0       -2.078572    0.536779   -0.787967
     14          1           0       -4.058342   -0.470217    1.298448
     15          1           0       -3.536584    1.208180    1.054333
     16          1           0       -3.296252   -0.534945   -2.656971
     17          7           0       -1.306411   -2.017036   -1.303218
     18          6           0       -0.622066   -1.333975   -2.259132
     19          6           0       -0.608315   -2.807062   -0.443993
     20          6           0        0.734330   -1.380927   -2.354716
     21          1           0       -1.216790   -0.717393   -2.921882
     22          6           0        0.749407   -2.887318   -0.462564
     23          1           0       -1.197906   -3.315215    0.311453
     24          6           0        1.489125   -2.069546   -1.358107
     25          1           0        1.223233   -0.811820   -3.133681
     26          1           0        1.236257   -3.475988    0.301895
     27          7           0        2.809641   -1.955377   -1.271322
     28          6           0        3.537263   -2.392548   -0.069705
     29          1           0        3.427926   -3.470489    0.077483
     30          1           0        3.131410   -1.843646    0.792918
     31          6           0        3.534266   -0.888404   -1.974663
     32          1           0        3.783595   -1.212541   -2.992486
     33          1           0        2.900605    0.001869   -2.010461
     34          7           0       -1.276050   -0.320568    0.862970
     35         16           0       -1.329593   -1.172778    2.251133
     36          8           0       -2.526656   -2.019612    2.228636
     37          8           0       -0.035082   -1.830899    2.447531
     38          6           0       -0.611683    2.691925    0.046740
     39          6           0       -0.138278    2.214328   -1.185544
     40          6           0       -0.923447    2.307789   -2.333047
     41          6           0       -2.198750    2.871383   -2.283537
     42          6           0       -2.682524    3.343529   -1.066664
     43          6           0       -1.891046    3.254339    0.078861
     44          1           0        0.824092    1.716350   -1.214204
     45          1           0       -0.529340    1.943257   -3.279460
     46          1           0       -2.804563    2.947573   -3.182327
     47          1           0       -3.672905    3.786791   -1.006920
     48          1           0       -2.276832    3.637324    1.021808
     49          8           0        0.697290    1.548711    1.898075
     50          1           0       -0.292868   -0.070158    0.552660
     51          6           0        1.838077    0.825928    1.257268
     52          8           0        1.436272    0.219162    0.159041
     53          8           0        2.226681   -0.058386    2.292742
     54          1           0        1.533351   -0.742664    2.315357
     55          6           0        3.037796    1.802479    1.136257
     56          1           0        2.991454    2.518152    1.967071
     57          1           0        3.933601    1.196905    1.322191
     58          6           0        0.229407    2.738541    1.326051
     59          1           0       -0.401177    3.200650    2.096790
     60          1           0        1.062430    3.437533    1.159827
     61          6           0       -1.494588    0.034610    3.545364
     62          1           0       -0.630148    0.697895    3.452139
     63          1           0       -2.431282    0.572970    3.390703
     64          1           0       -1.503399   -0.498044    4.497747
     65          6           0        3.212415    2.535591   -0.190619
     66          1           0        3.211740    1.803943   -1.006261
     67          1           0        2.366805    3.201092   -0.394978
     68          6           0        4.506081    3.347658   -0.219617
     69          1           0        4.639156    3.868605   -1.172801
     70          1           0        4.511631    4.100487    0.577452
     71          1           0        5.377377    2.702626   -0.061991
     72          6           0        4.972811   -1.978968   -0.373614
     73          1           0        5.567447   -1.875635    0.535815
     74          1           0        5.451514   -2.721108   -1.021943
     75          6           0        4.780030   -0.653738   -1.114934
     76          1           0        4.560895    0.134755   -0.390580
     77          1           0        5.645242   -0.354172   -1.710081
 ---------------------------------------------------------------------

 SCF Done:  E(RM062X) =  -1991.35865987     A.U. after   14 cycles

 The electronic state is 1-A.
 Alpha  occ. eigenvalues --  -90.14147 -19.61757 -19.61734 -19.58712 -19.56707
 Alpha  occ. eigenvalues --  -19.51295 -14.85160 -14.80451 -14.75688 -10.63416
 Alpha  occ. eigenvalues --  -10.62785 -10.62270 -10.62171 -10.60712 -10.59319
 Alpha  occ. eigenvalues --  -10.58505 -10.57990 -10.57932 -10.57144 -10.56891
 Alpha  occ. eigenvalues --  -10.56682 -10.55649 -10.55593 -10.55123 -10.54870
 Alpha  occ. eigenvalues --  -10.54831 -10.54773 -10.54715 -10.54564 -10.54391
 Alpha  occ. eigenvalues --  -10.54315 -10.54302 -10.53082 -10.51547 -10.51482
 Alpha  occ. eigenvalues --  -10.49720  -8.45124  -6.37340  -6.37318  -6.37161
 Alpha  occ. eigenvalues --   -1.21972  -1.13605  -1.13506  -1.10227  -1.09348
 Alpha  occ. eigenvalues --   -1.05891  -1.01705  -0.99343  -0.95731  -0.94983
 Alpha  occ. eigenvalues --   -0.93485  -0.90291  -0.88752  -0.85890  -0.85802
 Alpha  occ. eigenvalues --   -0.84821  -0.84697  -0.84252  -0.83052  -0.82676
 Alpha  occ. eigenvalues --   -0.76661  -0.76301  -0.75833  -0.74384  -0.72772
 Alpha  occ. eigenvalues --   -0.71630  -0.68327  -0.68242  -0.67938  -0.67192
 Alpha  occ. eigenvalues --   -0.66755  -0.65224  -0.64870  -0.63524  -0.60566
 Alpha  occ. eigenvalues --   -0.60403  -0.59788  -0.58980  -0.57807  -0.57585
 Alpha  occ. eigenvalues --   -0.57167  -0.56434  -0.55770  -0.55170  -0.54189
 Alpha  occ. eigenvalues --   -0.53530  -0.52651  -0.52442  -0.52413  -0.51904
 Alpha  occ. eigenvalues --   -0.51546  -0.51037  -0.50809  -0.49869  -0.49573
 Alpha  occ. eigenvalues --   -0.49159  -0.48826  -0.48204  -0.48131  -0.48035
 Alpha  occ. eigenvalues --   -0.47660  -0.47455  -0.46905  -0.46445  -0.46101
 Alpha  occ. eigenvalues --   -0.44887  -0.44728  -0.44133  -0.43875  -0.43258
 Alpha  occ. eigenvalues --   -0.42497  -0.42119  -0.41428  -0.41350  -0.41134
 Alpha  occ. eigenvalues --   -0.40896  -0.40472  -0.39998  -0.39827  -0.39350
 Alpha  occ. eigenvalues --   -0.39260  -0.39062  -0.38450  -0.37936  -0.37589
 Alpha  occ. eigenvalues --   -0.37386  -0.36736  -0.36569  -0.35723  -0.34897
 Alpha  occ. eigenvalues --   -0.34382  -0.33945  -0.31682  -0.31070  -0.29766
 Alpha  occ. eigenvalues --   -0.28885  -0.28598  -0.27634  -0.24893  -0.24444
 Alpha virt. eigenvalues --   -0.01509   0.00416   0.03562   0.03766   0.10146
 Alpha virt. eigenvalues --    0.11013   0.11651   0.12173   0.13187   0.13526
 Alpha virt. eigenvalues --    0.14205   0.14628   0.14765   0.15244   0.15600

 Mulliken charges:
               1
     1  C   -0.306234
     2  C   -0.307065
     3  C   -0.309441
     4  C   -0.059960
     5  C    0.056968
     6  C   -0.311696
     7  H    0.173888
     8  H    0.162786
     9  H    0.165411
    10  H    0.151063
    11  H    0.163209
    12  H    0.208846
    13  H    0.172884
    14  H    0.193006
    15  H    0.163586
    16  H    0.154128
    17  N   -0.430706
    18  C    0.067774
    19  C    0.063600
    20  C   -0.202432
    21  H    0.206617
    22  C   -0.208971
    23  H    0.245505
    24  C    0.446524
    25  H    0.191769
    26  H    0.211609
    27  N   -0.526582
    28  C   -0.171844
    29  H    0.169779
    30  H    0.231112
    31  C   -0.154581
    32  H    0.166396
    33  H    0.204314
    34  N   -0.816344
    35  S    1.253739
    36  O   -0.612260
    37  O   -0.607272
    38  C    0.086107
    39  C   -0.182718
    40  C   -0.189529
    41  C   -0.170952
    42  C   -0.163696
    43  C   -0.212185
    44  H    0.209311
    45  H    0.140712
    46  H    0.154866
    47  H    0.158575
    48  H    0.152486
    49  O   -0.549598
    50  H    0.449005
    51  C    0.725678
    52  O   -0.722938
    53  O   -0.718113
    54  H    0.445186
    55  C   -0.338541
    56  H    0.149237
    57  H    0.150749
    58  C   -0.092311
    59  H    0.140442
    60  H    0.147589
    61  C   -0.663164
    62  H    0.272791
    63  H    0.196251
    64  H    0.217487
    65  C   -0.293749
    66  H    0.137752
    67  H    0.146558
    68  C   -0.473923
    69  H    0.149085
    70  H    0.154797
    71  H    0.144526
    72  C   -0.331839
    73  H    0.187368
    74  H    0.163105
    75  C   -0.343458
    76  H    0.196691
    77  H    0.171236
 Sum of Mulliken charges =  -0.00000

 Dipole moment (field-independent basis, Debye):
    X=             -2.4630    Y=             -1.8724    Z=             -6.3920  Tot=              7.1014
 Quadrupole moment (field-independent basis, Debye-Ang):
   XX=           -205.5167   YY=           -223.0241   ZZ=           -219.7988
   XY=            -12.2732   XZ=             -5.3799   YZ=             10.0144

 Normal termination of Gaussian 16 at Thu Feb  7 15:24:12 2019.
