 Gaussian 16, Revision A.03,
 Gaussian 16:  ES64L-G16RevA.03 25-Dec-2016

 ------------------------------------------
 #p M062X/6-31G* em=gd3 force int=ultrafine
 ------------------------------------------

 -----
 Title
 -----
 Symbolic Z-matrix:
 Charge =  0 Multiplicity = 1

                         Standard orientation:
 ---------------------------------------------------------------------
 Center     Atomic      Atomic             Coordinates (Angstroms)
 Number     Number       Type             X           Y           Z
 ---------------------------------------------------------------------
      1          6           0       -4.783051    0.269442   -0.721046
      2          6           0       -4.896439   -1.058268   -1.476047
      3          6           0       -3.530703   -1.493326   -2.020835
      4          6           0       -2.556393   -1.620340   -0.855359
      5          6           0       -2.398428   -0.266684   -0.114375
      6          6           0       -3.762728    0.187246    0.418549
      7          1           0       -3.600038   -2.442767   -2.562670
      8          1           0       -5.280086   -1.834963   -0.801586
      9          1           0       -5.610012   -0.970020   -2.301300
     10          1           0       -4.474536    1.055572   -1.422616
     11          1           0       -5.761036    0.559384   -0.323139
     12          1           0       -2.936838   -2.361750   -0.145778
     13          1           0       -2.075306    0.469855   -0.861607
     14          1           0       -4.112303   -0.516255    1.181184
     15          1           0       -3.636265    1.167521    0.889614
     16          1           0       -3.183512   -0.727219   -2.727142
     17          7           0       -1.203997   -2.079796   -1.233399
     18          6           0       -0.518414   -1.454519   -2.226037
     19          6           0       -0.504865   -2.788436   -0.306048
     20          6           0        0.839997   -1.482969   -2.299698
     21          1           0       -1.113961   -0.904743   -2.944161
     22          6           0        0.854200   -2.836103   -0.294969
     23          1           0       -1.097542   -3.259075    0.470816
     24          6           0        1.591447   -2.076393   -1.242011
     25          1           0        1.329324   -0.967375   -3.114597
     26          1           0        1.340611   -3.353709    0.519754
     27          7           0        2.909620   -1.935441   -1.151285
     28          6           0        3.634733   -2.264454    0.086200
     29          1           0        3.536609   -3.328630    0.318172
     30          1           0        3.215618   -1.656418    0.902179
     31          6           0        3.630778   -0.934293   -1.945977
     32          1           0        3.880359   -1.346256   -2.931559
     33          1           0        2.995338   -0.052425   -2.068301
     34          7           0       -1.316887   -0.284720    0.857783
     35         16           0       -1.409293   -1.071389    2.280742
     36          8           0       -2.589459   -1.941782    2.261327
     37          8           0       -0.113381   -1.698052    2.558367
     38          6           0       -0.664376    2.709885    0.013049
     39          6           0       -0.194693    2.247686   -1.226101
     40          6           0       -1.000830    2.310226   -2.360508
     41          6           0       -2.295632    2.825497   -2.288889
     42          6           0       -2.777987    3.276923   -1.064215
     43          6           0       -1.963937    3.220524    0.067688
     44          1           0        0.785123    1.788188   -1.273285
     45          1           0       -0.609820    1.959187   -3.312760
     46          1           0       -2.918819    2.878473   -3.177428
     47          1           0       -3.784614    3.678831   -0.987636
     48          1           0       -2.347738    3.588474    1.017499
     49          8           0        0.664416    1.623781    1.883951
     50          1           0       -0.319325   -0.045010    0.556435
     51          6           0        1.777323    0.868802    1.240079
     52          8           0        1.345647    0.247898    0.159764
     53          8           0        2.172843    0.000993    2.287719
     54          1           0        1.453987   -0.652302    2.365992
     55          6           0        2.999430    1.812494    1.073804
     56          1           0        2.986517    2.549522    1.886958
     57          1           0        3.879987    1.184871    1.261668
     58          6           0        0.203067    2.797334    1.271679
     59          1           0       -0.403487    3.300650    2.035110
     60          1           0        1.044117    3.472944    1.060091
     61          6           0       -1.639541    0.197085    3.504878
     62          1           0       -0.780720    0.866873    3.408744
     63          1           0       -2.576590    0.712591    3.288216
     64          1           0       -1.675962   -0.284795    4.482970
     65          6           0        3.176832    2.503486   -0.275097
     66          1           0        3.092805    1.753289   -1.069527
     67          1           0        2.373683    3.223427   -0.466575
     68          6           0        4.521650    3.222582   -0.372149
     69          1           0        4.651210    3.712137   -1.342461
     70          1           0        4.610545    3.988817    0.405382
     71          1           0        5.353945    2.522324   -0.234126
     72          6           0        5.069334   -1.866088   -0.244867
     73          1           0        5.654721   -1.670183    0.655401
     74          1           0        5.561436   -2.662203   -0.814064
     75          6           0        4.877594   -0.619575   -1.113158
     76          1           0        4.666173    0.239510   -0.471901
     77          1           0        5.743181   -0.383700   -1.735794
 ---------------------------------------------------------------------

 SCF Done:  E(RM062X) =  -1991.35898450     A.U. after   14 cycles

 The electronic state is 1-A.
 Alpha  occ. eigenvalues --  -90.14029 -19.61644 -19.61637 -19.58808 -19.56749
 Alpha  occ. eigenvalues --  -19.51406 -14.85107 -14.80460 -14.75407 -10.63363
 Alpha  occ. eigenvalues --  -10.62733 -10.62340 -10.62028 -10.60633 -10.59181
 Alpha  occ. eigenvalues --  -10.58778 -10.57878 -10.57868 -10.57028 -10.56839
 Alpha  occ. eigenvalues --  -10.56650 -10.55589 -10.55580 -10.55225 -10.55102
 Alpha  occ. eigenvalues --  -10.54711 -10.54698 -10.54596 -10.54433 -10.54283
 Alpha  occ. eigenvalues --  -10.54207 -10.54146 -10.53081 -10.51703 -10.51594
 Alpha  occ. eigenvalues --  -10.49823  -8.45008  -6.37223  -6.37203  -6.37046
 Alpha  occ. eigenvalues --   -1.21861  -1.13676  -1.13439  -1.10106  -1.09362
 Alpha  occ. eigenvalues --   -1.05910  -1.01551  -0.99435  -0.95658  -0.94890
 Alpha  occ. eigenvalues --   -0.93447  -0.90208  -0.88757  -0.85935  -0.85803
 Alpha  occ. eigenvalues --   -0.84754  -0.84619  -0.84358  -0.82973  -0.82583
 Alpha  occ. eigenvalues --   -0.76630  -0.76383  -0.75826  -0.74383  -0.72683
 Alpha  occ. eigenvalues --   -0.71539  -0.68357  -0.68297  -0.67883  -0.67129
 Alpha  occ. eigenvalues --   -0.66747  -0.65165  -0.64858  -0.63519  -0.60571
 Alpha  occ. eigenvalues --   -0.60404  -0.59792  -0.58790  -0.57859  -0.57526
 Alpha  occ. eigenvalues --   -0.57110  -0.56411  -0.55666  -0.55160  -0.54165
 Alpha  occ. eigenvalues --   -0.53419  -0.52614  -0.52377  -0.52331  -0.51833
 Alpha  occ. eigenvalues --   -0.51506  -0.51102  -0.50951  -0.49833  -0.49586
 Alpha  occ. eigenvalues --   -0.49160  -0.48796  -0.48214  -0.48106  -0.48054
 Alpha  occ. eigenvalues --   -0.47607  -0.47413  -0.46885  -0.46470  -0.46082
 Alpha  occ. eigenvalues --   -0.44938  -0.44634  -0.44052  -0.43867  -0.43241
 Alpha  occ. eigenvalues --   -0.42417  -0.42067  -0.41604  -0.41447  -0.41216
 Alpha  occ. eigenvalues --   -0.40871  -0.40428  -0.40021  -0.39866  -0.39556
 Alpha  occ. eigenvalues --   -0.39228  -0.39033  -0.38410  -0.37855  -0.37575
 Alpha  occ. eigenvalues --   -0.37334  -0.36735  -0.36555  -0.35663  -0.34867
 Alpha  occ. eigenvalues --   -0.34326  -0.33860  -0.31785  -0.30931  -0.29668
 Alpha  occ. eigenvalues --   -0.28875  -0.28503  -0.27531  -0.25003  -0.24538
 Alpha virt. eigenvalues --   -0.01359   0.00534   0.03668   0.03887   0.10253
 Alpha virt. eigenvalues --    0.11073   0.11515   0.12062   0.13216   0.13531
 Alpha virt. eigenvalues --    0.14247   0.14683   0.14844   0.15411   0.15607

 Mulliken charges:
               1
     1  C   -0.306044
     2  C   -0.306827
     3  C   -0.310570
     4  C   -0.058697
     5  C    0.056548
     6  C   -0.311576
     7  H    0.173727
     8  H    0.162936
     9  H    0.164973
    10  H    0.150241
    11  H    0.162816
    12  H    0.208302
    13  H    0.172204
    14  H    0.193972
    15  H    0.163227
    16  H    0.153513
    17  N   -0.433414
    18  C    0.070865
    19  C    0.065502
    20  C   -0.206363
    21  H    0.207186
    22  C   -0.209714
    23  H    0.245866
    24  C    0.453128
    25  H    0.190573
    26  H    0.211746
    27  N   -0.530716
    28  C   -0.178003
    29  H    0.169985
    30  H    0.239497
    31  C   -0.154218
    32  H    0.168907
    33  H    0.200024
    34  N   -0.817473
    35  S    1.254286
    36  O   -0.611330
    37  O   -0.610015
    38  C    0.093231
    39  C   -0.176302
    40  C   -0.188543
    41  C   -0.170282
    42  C   -0.163524
    43  C   -0.212042
    44  H    0.201205
    45  H    0.141724
    46  H    0.154306
    47  H    0.157900
    48  H    0.151631
    49  O   -0.547746
    50  H    0.449901
    51  C    0.728785
    52  O   -0.724468
    53  O   -0.718173
    54  H    0.446050
    55  C   -0.337089
    56  H    0.150605
    57  H    0.146996
    58  C   -0.095822
    59  H    0.141456
    60  H    0.146542
    61  C   -0.662597
    62  H    0.269792
    63  H    0.196373
    64  H    0.217357
    65  C   -0.295851
    66  H    0.142074
    67  H    0.147240
    68  C   -0.476672
    69  H    0.149650
    70  H    0.156505
    71  H    0.144148
    72  C   -0.331949
    73  H    0.187478
    74  H    0.163981
    75  C   -0.344723
    76  H    0.193538
    77  H    0.172255
 Sum of Mulliken charges =  -0.00000

 Dipole moment (field-independent basis, Debye):
    X=             -1.9256    Y=             -2.0510    Z=             -6.4911  Tot=              7.0745
 Quadrupole moment (field-independent basis, Debye-Ang):
   XX=           -204.3307   YY=           -223.0293   ZZ=           -220.1232
   XY=            -12.0979   XZ=             -5.0046   YZ=             10.3760

 Normal termination of Gaussian 16 at Thu Feb  7 17:54:56 2019.
