 Gaussian 16, Revision A.03,
 Gaussian 16:  ES64L-G16RevA.03 25-Dec-2016

 ------------------------------------------
 #p M062X/6-31G* em=gd3 force int=ultrafine
 ------------------------------------------

 -----
 Title
 -----
 Symbolic Z-matrix:
 Charge =  0 Multiplicity = 1

                         Standard orientation:
 ---------------------------------------------------------------------
 Center     Atomic      Atomic             Coordinates (Angstroms)
 Number     Number       Type             X           Y           Z
 ---------------------------------------------------------------------
      1          6           0       -4.865214    0.260544   -0.467110
      2          6           0       -4.975022   -1.026296   -1.290300
      3          6           0       -3.612610   -1.416260   -1.877130
      4          6           0       -2.611940   -1.585786   -0.737993
      5          6           0       -2.455962   -0.269900    0.076572
      6          6           0       -3.824838    0.126000    0.649124
      7          1           0       -3.683704   -2.336209   -2.468628
      8          1           0       -5.340924   -1.841143   -0.652037
      9          1           0       -5.701016   -0.904349   -2.101020
     10          1           0       -4.565990    1.083300   -1.131936
     11          1           0       -5.842981    0.525158   -0.050654
     12          1           0       -2.953922   -2.377802   -0.064766
     13          1           0       -2.198918    0.498733   -0.668368
     14          1           0       -4.143723   -0.621646    1.386027
     15          1           0       -3.701382    1.082260    1.171483
     16          1           0       -3.290750   -0.608693   -2.549008
     17          7           0       -1.258194   -1.995896   -1.182511
     18          6           0       -0.622211   -1.324908   -2.171291
     19          6           0       -0.521636   -2.751774   -0.333930
     20          6           0        0.732765   -1.374249   -2.332934
     21          1           0       -1.246982   -0.719633   -2.815344
     22          6           0        0.837534   -2.848224   -0.430243
     23          1           0       -1.071676   -3.237033    0.465326
     24          6           0        1.534637   -2.079133   -1.392370
     25          1           0        1.180952   -0.815318   -3.143944
     26          1           0        1.355333   -3.423857    0.324035
     27          7           0        2.873415   -2.004286   -1.396175
     28          6           0        3.646288   -2.491017   -0.245432
     29          1           0        3.572123   -3.578830   -0.160104
     30          1           0        3.251223   -2.032118    0.671703
     31          6           0        3.592063   -0.938310   -2.113159
     32          1           0        3.858184   -1.275053   -3.122257
     33          1           0        2.963502   -0.046220   -2.176552
     34          7           0       -1.330409   -0.291245    0.982076
     35         16           0       -1.317932   -1.190076    2.282846
     36          8           0       -2.380416   -2.218745    2.309270
     37          8           0        0.061094   -1.707989    2.495229
     38          6           0       -0.885611    2.820108   -0.121009
     39          6           0       -0.262643    2.143635   -1.177661
     40          6           0       -0.877864    2.094483   -2.427088
     41          6           0       -2.129989    2.677601   -2.628399
     42          6           0       -2.766251    3.318620   -1.568604
     43          6           0       -2.140600    3.388804   -0.326508
     44          1           0        0.680668    1.627803   -1.005411
     45          1           0       -0.378483    1.594599   -3.254489
     46          1           0       -2.607819    2.632939   -3.602554
     47          1           0       -3.747134    3.764291   -1.703316
     48          1           0       -2.633764    3.883649    0.506687
     49          8           0        0.289624    1.704568    1.685297
     50          1           0       -0.295820    0.961065    1.329803
     51          6           0        2.441133    0.593060    1.166970
     52          8           0        2.092146    0.180690    0.075530
     53          8           0        2.277780   -0.089683    2.294730
     54          1           0        1.546410   -0.755143    2.191067
     55          6           0        3.172253    1.900134    1.368148
     56          1           0        2.635933    2.439929    2.155536
     57          1           0        4.171525    1.677842    1.766374
     58          6           0       -0.236500    2.917840    1.242805
     59          1           0       -0.972510    3.323383    1.955620
     60          1           0        0.595710    3.637638    1.206351
     61          6           0       -1.577264   -0.082400    3.667410
     62          1           0       -0.803864    0.686234    3.595112
     63          1           0       -2.570074    0.362507    3.576157
     64          1           0       -1.485266   -0.644417    4.597634
     65          6           0        3.267779    2.731630    0.092623
     66          1           0        3.671257    2.114111   -0.718619
     67          1           0        2.259872    3.018909   -0.228452
     68          6           0        4.130093    3.976925    0.279230
     69          1           0        4.220339    4.543148   -0.652333
     70          1           0        3.703918    4.643221    1.036662
     71          1           0        5.139880    3.706786    0.606862
     72          6           0        5.065298   -2.013191   -0.539603
     73          1           0        5.658258   -1.915044    0.371990
     74          1           0        5.570615   -2.718542   -1.206999
     75          6           0        4.829624   -0.677730   -1.248715
     76          1           0        4.587364    0.092076   -0.511019
     77          1           0        5.685170   -0.339278   -1.836744
 ---------------------------------------------------------------------

 SCF Done:  E(RM062X) =  -1991.38400090     A.U. after   15 cycles

 The electronic state is 1-A.
 Alpha  occ. eigenvalues --  -90.10244 -19.63576 -19.60228 -19.58807 -19.58349
 Alpha  occ. eigenvalues --  -19.58289 -14.84792 -14.80431 -14.69283 -10.65777
 Alpha  occ. eigenvalues --  -10.63212 -10.62428 -10.61578 -10.59216 -10.59084
 Alpha  occ. eigenvalues --  -10.58917 -10.57828 -10.57367 -10.56769 -10.56708
 Alpha  occ. eigenvalues --  -10.55949 -10.55704 -10.55613 -10.55064 -10.54996
 Alpha  occ. eigenvalues --  -10.54921 -10.54644 -10.54604 -10.54511 -10.53949
 Alpha  occ. eigenvalues --  -10.53593 -10.53477 -10.53438 -10.53382 -10.52869
 Alpha  occ. eigenvalues --  -10.52624  -8.41198  -6.33435  -6.33345  -6.33265
 Alpha  occ. eigenvalues --   -1.19240  -1.17713  -1.12924  -1.10129  -1.09998
 Alpha  occ. eigenvalues --   -1.09074  -1.06001  -0.97530  -0.95350  -0.94739
 Alpha  occ. eigenvalues --   -0.92187  -0.89820  -0.88560  -0.88337  -0.85089
 Alpha  occ. eigenvalues --   -0.84847  -0.83700  -0.83535  -0.83282  -0.80036
 Alpha  occ. eigenvalues --   -0.79390  -0.76316  -0.75614  -0.74666  -0.70943
 Alpha  occ. eigenvalues --   -0.70257  -0.69313  -0.68668  -0.68342  -0.68092
 Alpha  occ. eigenvalues --   -0.65976  -0.64755  -0.63914  -0.63487  -0.61599
 Alpha  occ. eigenvalues --   -0.60270  -0.59366  -0.59098  -0.58356  -0.56159
 Alpha  occ. eigenvalues --   -0.55643  -0.55291  -0.55155  -0.54386  -0.53862
 Alpha  occ. eigenvalues --   -0.53458  -0.53051  -0.52610  -0.51862  -0.51647
 Alpha  occ. eigenvalues --   -0.51071  -0.50945  -0.50620  -0.50023  -0.49827
 Alpha  occ. eigenvalues --   -0.49696  -0.49524  -0.48772  -0.48315  -0.48019
 Alpha  occ. eigenvalues --   -0.47769  -0.47233  -0.47077  -0.46986  -0.45823
 Alpha  occ. eigenvalues --   -0.45562  -0.45184  -0.43957  -0.43699  -0.43470
 Alpha  occ. eigenvalues --   -0.42931  -0.42822  -0.42159  -0.42042  -0.41835
 Alpha  occ. eigenvalues --   -0.41207  -0.40924  -0.40520  -0.39888  -0.39634
 Alpha  occ. eigenvalues --   -0.39386  -0.39334  -0.39061  -0.38400  -0.38073
 Alpha  occ. eigenvalues --   -0.37376  -0.36265  -0.35818  -0.35327  -0.35177
 Alpha  occ. eigenvalues --   -0.34259  -0.32989  -0.31982  -0.31678  -0.31322
 Alpha  occ. eigenvalues --   -0.29950  -0.28812  -0.28333  -0.27321  -0.25342
 Alpha virt. eigenvalues --   -0.01062   0.00680   0.03131   0.03703   0.08789
 Alpha virt. eigenvalues --    0.10164   0.10955   0.11792   0.12958   0.13522
 Alpha virt. eigenvalues --    0.13796   0.14313   0.14985   0.15466   0.15862

 Mulliken charges:
               1
     1  C   -0.303932
     2  C   -0.304293
     3  C   -0.309857
     4  C   -0.071862
     5  C    0.067722
     6  C   -0.304768
     7  H    0.166960
     8  H    0.161335
     9  H    0.159255
    10  H    0.145048
    11  H    0.157028
    12  H    0.209715
    13  H    0.140394
    14  H    0.180875
    15  H    0.150253
    16  H    0.149861
    17  N   -0.424089
    18  C    0.097396
    19  C    0.089593
    20  C   -0.226379
    21  H    0.204578
    22  C   -0.227122
    23  H    0.260348
    24  C    0.426661
    25  H    0.187511
    26  H    0.207819
    27  N   -0.526753
    28  C   -0.159075
    29  H    0.178210
    30  H    0.198121
    31  C   -0.145758
    32  H    0.169585
    33  H    0.193994
    34  N   -0.767064
    35  S    1.246923
    36  O   -0.639754
    37  O   -0.668783
    38  C    0.051232
    39  C   -0.176214
    40  C   -0.188673
    41  C   -0.169513
    42  C   -0.160693
    43  C   -0.199778
    44  H    0.204169
    45  H    0.139660
    46  H    0.157096
    47  H    0.162357
    48  H    0.158466
    49  O   -0.717268
    50  H    0.485827
    51  C    0.662304
    52  O   -0.520393
    53  O   -0.647453
    54  H    0.483274
    55  C   -0.373577
    56  H    0.203007
    57  H    0.166798
    58  C   -0.063104
    59  H    0.126735
    60  H    0.145230
    61  C   -0.663320
    62  H    0.229270
    63  H    0.185507
    64  H    0.205889
    65  C   -0.290538
    66  H    0.146586
    67  H    0.162264
    68  C   -0.480526
    69  H    0.159690
    70  H    0.158710
    71  H    0.151992
    72  C   -0.336253
    73  H    0.184383
    74  H    0.169684
    75  C   -0.335610
    76  H    0.180298
    77  H    0.172789
 Sum of Mulliken charges =  -0.00000

 Dipole moment (field-independent basis, Debye):
    X=              1.6283    Y=              0.0126    Z=             -6.7354  Tot=              6.9294
 Quadrupole moment (field-independent basis, Debye-Ang):
   XX=           -199.8568   YY=           -222.4324   ZZ=           -222.8385
   XY=            -11.5706   XZ=              0.5755   YZ=             12.9692

 Normal termination of Gaussian 16 at Thu Feb  7 22:07:48 2019.
