 Gaussian 16, Revision A.03,
 Gaussian 16:  ES64L-G16RevA.03 25-Dec-2016

 ------------------------------------------
 #p M062X/6-31G* em=gd3 force int=ultrafine
 ------------------------------------------

 -----
 Title
 -----
 Symbolic Z-matrix:
 Charge =  0 Multiplicity = 1

                         Standard orientation:
 ---------------------------------------------------------------------
 Center     Atomic      Atomic             Coordinates (Angstroms)
 Number     Number       Type             X           Y           Z
 ---------------------------------------------------------------------
      1          6           0       -4.866622    0.240624   -0.462249
      2          6           0       -4.970742   -1.048075   -1.283303
      3          6           0       -3.606663   -1.433169   -1.869313
      4          6           0       -2.604604   -1.594111   -0.730160
      5          6           0       -2.453471   -0.274386    0.079392
      6          6           0       -3.824264    0.113572    0.653073
      7          1           0       -3.673443   -2.355701   -2.457326
      8          1           0       -5.333347   -1.863504   -0.643894
      9          1           0       -5.697076   -0.930510   -2.094383
     10          1           0       -4.572285    1.063811   -1.128689
     11          1           0       -5.845337    0.500801   -0.045229
     12          1           0       -2.943441   -2.384471   -0.053604
     13          1           0       -2.202698    0.493483   -0.668375
     14          1           0       -4.137635   -0.636059    1.390427
     15          1           0       -3.706844    1.070745    1.175098
     16          1           0       -3.289045   -0.626520   -2.544284
     17          7           0       -1.250326   -2.001945   -1.174410
     18          6           0       -0.617437   -1.332905   -2.166349
     19          6           0       -0.511487   -2.754889   -0.325276
     20          6           0        0.737309   -1.380413   -2.330057
     21          1           0       -1.244646   -0.731252   -2.811424
     22          6           0        0.847637   -2.848902   -0.423242
     23          1           0       -1.059613   -3.238684    0.476175
     24          6           0        1.541634   -2.080834   -1.388341
     25          1           0        1.183283   -0.823802   -3.143846
     26          1           0        1.367809   -3.421553    0.331659
     27          7           0        2.880118   -2.003298   -1.394008
     28          6           0        3.655695   -2.487545   -0.244218
     29          1           0        3.584714   -3.575622   -0.158918
     30          1           0        3.260098   -2.029966    0.673373
     31          6           0        3.595757   -0.938338   -2.114997
     32          1           0        3.860992   -1.277528   -3.123553
     33          1           0        2.965354   -0.047632   -2.180138
     34          7           0       -1.326383   -0.285190    0.984069
     35         16           0       -1.308595   -1.186815    2.282371
     36          8           0       -2.361283   -2.225851    2.304893
     37          8           0        0.073821   -1.694532    2.498021
     38          6           0       -0.907876    2.827968   -0.128652
     39          6           0       -0.276939    2.147272   -1.177644
     40          6           0       -0.885934    2.086392   -2.429483
     41          6           0       -2.140018    2.661726   -2.640602
     42          6           0       -2.784624    3.306330   -1.588014
     43          6           0       -2.165137    3.388466   -0.343409
     44          1           0        0.667770    1.636891   -0.997015
     45          1           0       -0.379930    1.583213   -3.250774
     46          1           0       -2.612822    2.608249   -3.616770
     47          1           0       -3.767347    3.745592   -1.730579
     48          1           0       -2.665254    3.886588    0.483752
     49          8           0        0.284621    1.734852    1.680350
     50          1           0       -0.294076    0.983891    1.333670
     51          6           0        2.442112    0.600089    1.169737
     52          8           0        2.091833    0.184914    0.079304
     53          8           0        2.274638   -0.076315    2.299722
     54          1           0        1.545136   -0.744619    2.196868
     55          6           0        3.176285    1.905809    1.367119
     56          1           0        2.644024    2.446630    2.156414
     57          1           0        4.177341    1.682243    1.760391
     58          6           0       -0.261298    2.939232    1.235426
     59          1           0       -1.003556    3.335515    1.947099
     60          1           0        0.559602    3.671714    1.196617
     61          6           0       -1.583347   -0.086679    3.669603
     62          1           0       -0.818164    0.690732    3.603896
     63          1           0       -2.580702    0.347402    3.575817
     64          1           0       -1.489423   -0.651606    4.597877
     65          6           0        3.264591    2.735459    0.090388
     66          1           0        3.672466    2.119644   -0.720006
     67          1           0        2.253403    3.012653   -0.229026
     68          6           0        4.115946    3.988682    0.273011
     69          1           0        4.196906    4.554956   -0.659370
     70          1           0        3.686065    4.651273    1.031586
     71          1           0        5.129642    3.728797    0.596880
     72          6           0        5.073181   -2.006004   -0.539962
     73          1           0        5.665663   -1.903322    0.371428
     74          1           0        5.580935   -2.711800   -1.205036
     75          6           0        4.833842   -0.673133   -1.252855
     76          1           0        4.590880    0.098507   -0.517312
     77          1           0        5.688066   -0.335074   -1.843025
 ---------------------------------------------------------------------

 SCF Done:  E(RM062X) =  -1991.38477214     A.U. after   15 cycles

 The electronic state is 1-A.
 Alpha  occ. eigenvalues --  -90.10259 -19.63545 -19.60206 -19.58866 -19.58381
 Alpha  occ. eigenvalues --  -19.58295 -14.84788 -14.80437 -14.69293 -10.65731
 Alpha  occ. eigenvalues --  -10.63209 -10.62422 -10.61558 -10.59194 -10.59090
 Alpha  occ. eigenvalues --  -10.58931 -10.57825 -10.57375 -10.56768 -10.56702
 Alpha  occ. eigenvalues --  -10.55957 -10.55708 -10.55603 -10.55049 -10.54981
 Alpha  occ. eigenvalues --  -10.54912 -10.54636 -10.54599 -10.54509 -10.53926
 Alpha  occ. eigenvalues --  -10.53590 -10.53435 -10.53422 -10.53396 -10.52840
 Alpha  occ. eigenvalues --  -10.52625  -8.41215  -6.33452  -6.33361  -6.33281
 Alpha  occ. eigenvalues --   -1.19217  -1.17736  -1.12922  -1.10140  -1.09969
 Alpha  occ. eigenvalues --   -1.09079  -1.06020  -0.97527  -0.95337  -0.94743
 Alpha  occ. eigenvalues --   -0.92187  -0.89821  -0.88559  -0.88309  -0.85078
 Alpha  occ. eigenvalues --   -0.84859  -0.83691  -0.83528  -0.83286  -0.80057
 Alpha  occ. eigenvalues --   -0.79364  -0.76317  -0.75617  -0.74667  -0.70940
 Alpha  occ. eigenvalues --   -0.70247  -0.69287  -0.68672  -0.68340  -0.68081
 Alpha  occ. eigenvalues --   -0.65957  -0.64752  -0.63915  -0.63477  -0.61599
 Alpha  occ. eigenvalues --   -0.60264  -0.59365  -0.59083  -0.58354  -0.56157
 Alpha  occ. eigenvalues --   -0.55604  -0.55272  -0.55146  -0.54342  -0.53838
 Alpha  occ. eigenvalues --   -0.53453  -0.53051  -0.52590  -0.51879  -0.51653
 Alpha  occ. eigenvalues --   -0.51077  -0.50949  -0.50617  -0.50033  -0.49827
 Alpha  occ. eigenvalues --   -0.49670  -0.49527  -0.48777  -0.48316  -0.48010
 Alpha  occ. eigenvalues --   -0.47782  -0.47222  -0.47069  -0.46981  -0.45838
 Alpha  occ. eigenvalues --   -0.45587  -0.45195  -0.43952  -0.43687  -0.43463
 Alpha  occ. eigenvalues --   -0.42881  -0.42807  -0.42165  -0.42042  -0.41844
 Alpha  occ. eigenvalues --   -0.41196  -0.40919  -0.40522  -0.39885  -0.39621
 Alpha  occ. eigenvalues --   -0.39377  -0.39318  -0.39026  -0.38401  -0.38053
 Alpha  occ. eigenvalues --   -0.37361  -0.36252  -0.35814  -0.35330  -0.35173
 Alpha  occ. eigenvalues --   -0.34276  -0.33003  -0.31991  -0.31667  -0.31363
 Alpha  occ. eigenvalues --   -0.29936  -0.28823  -0.28329  -0.27335  -0.25346
 Alpha virt. eigenvalues --   -0.01055   0.00679   0.03147   0.03717   0.08817
 Alpha virt. eigenvalues --    0.10168   0.10946   0.11798   0.12955   0.13534
 Alpha virt. eigenvalues --    0.13813   0.14311   0.14983   0.15472   0.15857

 Mulliken charges:
               1
     1  C   -0.303951
     2  C   -0.304251
     3  C   -0.309814
     4  C   -0.072168
     5  C    0.067013
     6  C   -0.304794
     7  H    0.166870
     8  H    0.161255
     9  H    0.159230
    10  H    0.145196
    11  H    0.156977
    12  H    0.210195
    13  H    0.140567
    14  H    0.180445
    15  H    0.150288
    16  H    0.149885
    17  N   -0.424006
    18  C    0.097631
    19  C    0.088280
    20  C   -0.226462
    21  H    0.204602
    22  C   -0.226883
    23  H    0.261069
    24  C    0.426877
    25  H    0.187574
    26  H    0.207756
    27  N   -0.527009
    28  C   -0.158933
    29  H    0.178237
    30  H    0.198233
    31  C   -0.145904
    32  H    0.169588
    33  H    0.194142
    34  N   -0.765229
    35  S    1.247605
    36  O   -0.640902
    37  O   -0.669131
    38  C    0.050720
    39  C   -0.176150
    40  C   -0.188533
    41  C   -0.169524
    42  C   -0.160840
    43  C   -0.199652
    44  H    0.204368
    45  H    0.139535
    46  H    0.156981
    47  H    0.162274
    48  H    0.158311
    49  O   -0.717009
    50  H    0.485495
    51  C    0.660587
    52  O   -0.520778
    53  O   -0.647368
    54  H    0.483811
    55  C   -0.372965
    56  H    0.203068
    57  H    0.166422
    58  C   -0.063117
    59  H    0.126868
    60  H    0.146418
    61  C   -0.662517
    62  H    0.228100
    63  H    0.185839
    64  H    0.206116
    65  C   -0.290107
    66  H    0.146276
    67  H    0.162276
    68  C   -0.480473
    69  H    0.159555
    70  H    0.158621
    71  H    0.151866
    72  C   -0.336438
    73  H    0.184418
    74  H    0.169739
    75  C   -0.335674
    76  H    0.180561
    77  H    0.172843
 Sum of Mulliken charges =  -0.00000

 Dipole moment (field-independent basis, Debye):
    X=              1.6031    Y=             -0.0520    Z=             -6.7101  Tot=              6.8991
 Quadrupole moment (field-independent basis, Debye-Ang):
   XX=           -199.6593   YY=           -222.4364   ZZ=           -222.7608
   XY=            -11.5767   XZ=              0.3625   YZ=             12.8820

 Normal termination of Gaussian 16 at Thu Feb  7 22:21:05 2019.
