 Gaussian 16, Revision A.03,
 Gaussian 16:  ES64L-G16RevA.03 25-Dec-2016

 ------------------------------------------
 #p M062X/6-31G* em=gd3 force int=ultrafine
 ------------------------------------------

 -----
 Title
 -----
 Symbolic Z-matrix:
 Charge =  0 Multiplicity = 1

                         Standard orientation:
 ---------------------------------------------------------------------
 Center     Atomic      Atomic             Coordinates (Angstroms)
 Number     Number       Type             X           Y           Z
 ---------------------------------------------------------------------
      1          6           0       -4.797481    0.459132   -0.516741
      2          6           0       -5.004313   -0.845090   -1.292812
      3          6           0       -3.687267   -1.325014   -1.914945
      4          6           0       -2.663407   -1.519561   -0.802567
      5          6           0       -2.414424   -0.193353   -0.039673
      6          6           0       -3.727695    0.309126    0.569817
      7          1           0       -3.824488   -2.258867   -2.470445
      8          1           0       -5.387333   -1.620380   -0.616277
      9          1           0       -5.753608   -0.708165   -2.078783
     10          1           0       -4.488720    1.246795   -1.216665
     11          1           0       -5.741777    0.781341   -0.065978
     12          1           0       -3.037572   -2.264170   -0.093228
     13          1           0       -2.095861    0.547420   -0.784212
     14          1           0       -4.069919   -0.392397    1.337838
     15          1           0       -3.532780    1.273934    1.050310
     16          1           0       -3.341292   -0.559959   -2.623076
     17          7           0       -1.348151   -2.017494   -1.256859
     18          6           0       -0.666908   -1.347349   -2.224691
     19          6           0       -0.648888   -2.807486   -0.399062
     20          6           0        0.687613   -1.408214   -2.334186
     21          1           0       -1.262378   -0.727921   -2.884001
     22          6           0        0.707373   -2.906430   -0.435399
     23          1           0       -1.234403   -3.300197    0.369663
     24          6           0        1.446539   -2.104902   -1.346346
     25          1           0        1.174706   -0.846346   -3.119710
     26          1           0        1.196273   -3.495235    0.327614
     27          7           0        2.769501   -2.011447   -1.280915
     28          6           0        3.509060   -2.476326   -0.097714
     29          1           0        3.385051   -3.554422    0.036413
     30          1           0        3.126244   -1.932529    0.778422
     31          6           0        3.498917   -0.941970   -1.978085
     32          1           0        3.738149   -1.256664   -3.001349
     33          1           0        2.874520   -0.044586   -1.992894
     34          7           0       -1.289969   -0.281241    0.879545
     35         16           0       -1.329692   -1.112964    2.283658
     36          8           0       -2.548159   -1.928056    2.295306
     37          8           0       -0.048061   -1.799960    2.459824
     38          6           0       -0.567599    2.670006   -0.021425
     39          6           0       -0.095058    2.151509   -1.237454
     40          6           0       -0.871460    2.228668   -2.392389
     41          6           0       -2.136796    2.815317   -2.366942
     42          6           0       -2.619023    3.329512   -1.166321
     43          6           0       -1.836705    3.256772   -0.013438
     44          1           0        0.859187    1.635879   -1.244085
     45          1           0       -0.477526    1.832262   -3.326159
     46          1           0       -2.735406    2.877706   -3.271568
     47          1           0       -3.601248    3.792355   -1.125447
     48          1           0       -2.222045    3.671005    0.916263
     49          8           0        0.727712    1.542195    1.849026
     50          1           0       -0.316992   -0.044418    0.558215
     51          6           0        1.886805    0.814605    1.231137
     52          8           0        1.505598    0.202094    0.132392
     53          8           0        2.252845   -0.061836    2.281089
     54          1           0        1.558754   -0.745353    2.291982
     55          6           0        3.078926    1.800099    1.131674
     56          1           0        3.006241    2.516581    1.959903
     57          1           0        3.980787    1.209386    1.334833
     58          6           0        0.261504    2.727081    1.266256
     59          1           0       -0.379844    3.190557    2.027611
     60          1           0        1.092637    3.430211    1.105540
     61          6           0       -1.435897    0.117208    3.562212
     62          1           0       -0.553904    0.752932    3.444269
     63          1           0       -2.359226    0.680533    3.416278
     64          1           0       -1.442908   -0.402517    4.521749
     65          6           0        3.264152    2.537629   -0.191624
     66          1           0        3.403326    1.807411   -0.998218
     67          1           0        2.365871    3.103044   -0.462812
     68          6           0        4.456770    3.491222   -0.136438
     69          1           0        4.612880    4.005990   -1.089451
     70          1           0        4.304352    4.253577    0.635196
     71          1           0        5.378036    2.953657    0.114267
     72          6           0        4.944771   -2.077153   -0.418125
     73          1           0        5.558062   -2.003589    0.481677
     74          1           0        5.400105   -2.810119   -1.093382
     75          6           0        4.752204   -0.732924   -1.123179
     76          1           0        4.536152    0.034482   -0.375229
     77          1           0        5.613545   -0.418732   -1.716318
 ---------------------------------------------------------------------

 SCF Done:  E(RM062X) =  -1991.35799456     A.U. after   14 cycles

 The electronic state is 1-A.
 Alpha  occ. eigenvalues --  -90.14299 -19.61891 -19.61855 -19.58600 -19.56664
 Alpha  occ. eigenvalues --  -19.51091 -14.85214 -14.80416 -14.76028 -10.63414
 Alpha  occ. eigenvalues --  -10.62788 -10.62243 -10.62155 -10.60802 -10.59463
 Alpha  occ. eigenvalues --  -10.58338 -10.57999 -10.57969 -10.57185 -10.56892
 Alpha  occ. eigenvalues --  -10.56735 -10.55704 -10.55658 -10.55079 -10.54865
 Alpha  occ. eigenvalues --  -10.54855 -10.54752 -10.54739 -10.54601 -10.54418
 Alpha  occ. eigenvalues --  -10.54388 -10.54341 -10.53041 -10.51417 -10.51381
 Alpha  occ. eigenvalues --  -10.49609  -8.45275  -6.37494  -6.37468  -6.37311
 Alpha  occ. eigenvalues --   -1.22116  -1.13605  -1.13398  -1.10369  -1.09320
 Alpha  occ. eigenvalues --   -1.05817  -1.01884  -0.99251  -0.95792  -0.95004
 Alpha  occ. eigenvalues --   -0.93527  -0.90319  -0.88762  -0.86000  -0.85689
 Alpha  occ. eigenvalues --   -0.84830  -0.84743  -0.84180  -0.83066  -0.82768
 Alpha  occ. eigenvalues --   -0.76685  -0.76201  -0.75820  -0.74311  -0.72872
 Alpha  occ. eigenvalues --   -0.71701  -0.68325  -0.68198  -0.67937  -0.67273
 Alpha  occ. eigenvalues --   -0.66714  -0.65262  -0.64858  -0.63533  -0.60530
 Alpha  occ. eigenvalues --   -0.60402  -0.59755  -0.59182  -0.57795  -0.57636
 Alpha  occ. eigenvalues --   -0.57219  -0.56455  -0.55808  -0.55159  -0.54219
 Alpha  occ. eigenvalues --   -0.53585  -0.52696  -0.52515  -0.52492  -0.51913
 Alpha  occ. eigenvalues --   -0.51563  -0.50984  -0.50633  -0.49903  -0.49494
 Alpha  occ. eigenvalues --   -0.49161  -0.48876  -0.48212  -0.48134  -0.47954
 Alpha  occ. eigenvalues --   -0.47713  -0.47494  -0.46951  -0.46395  -0.46095
 Alpha  occ. eigenvalues --   -0.44916  -0.44738  -0.44189  -0.43846  -0.43272
 Alpha  occ. eigenvalues --   -0.42556  -0.42168  -0.41353  -0.41265  -0.41061
 Alpha  occ. eigenvalues --   -0.40899  -0.40520  -0.39991  -0.39775  -0.39254
 Alpha  occ. eigenvalues --   -0.39237  -0.39091  -0.38421  -0.38037  -0.37644
 Alpha  occ. eigenvalues --   -0.37374  -0.36741  -0.36525  -0.35811  -0.34926
 Alpha  occ. eigenvalues --   -0.34399  -0.34024  -0.31679  -0.31174  -0.29784
 Alpha  occ. eigenvalues --   -0.28865  -0.28606  -0.27683  -0.24671  -0.24287
 Alpha virt. eigenvalues --   -0.01522   0.00384   0.03524   0.03732   0.10123
 Alpha virt. eigenvalues --    0.10913   0.11612   0.12268   0.13148   0.13451
 Alpha virt. eigenvalues --    0.14225   0.14491   0.14752   0.15230   0.15596

 Mulliken charges:
               1
     1  C   -0.306301
     2  C   -0.307262
     3  C   -0.309158
     4  C   -0.060235
     5  C    0.055941
     6  C   -0.310974
     7  H    0.174273
     8  H    0.162989
     9  H    0.165767
    10  H    0.150770
    11  H    0.163762
    12  H    0.208962
    13  H    0.173627
    14  H    0.193934
    15  H    0.163458
    16  H    0.154617
    17  N   -0.431254
    18  C    0.067659
    19  C    0.064806
    20  C   -0.201484
    21  H    0.206105
    22  C   -0.209828
    23  H    0.244588
    24  C    0.446126
    25  H    0.192310
    26  H    0.211375
    27  N   -0.525268
    28  C   -0.169925
    29  H    0.169608
    30  H    0.227652
    31  C   -0.154318
    32  H    0.164542
    33  H    0.207144
    34  N   -0.813180
    35  S    1.251623
    36  O   -0.610315
    37  O   -0.604370
    38  C    0.081351
    39  C   -0.186625
    40  C   -0.190167
    41  C   -0.171800
    42  C   -0.163883
    43  C   -0.211610
    44  H    0.215161
    45  H    0.140361
    46  H    0.154957
    47  H    0.158578
    48  H    0.152394
    49  O   -0.553562
    50  H    0.447101
    51  C    0.722259
    52  O   -0.720127
    53  O   -0.717373
    54  H    0.442841
    55  C   -0.338132
    56  H    0.148095
    57  H    0.151168
    58  C   -0.089277
    59  H    0.138798
    60  H    0.148097
    61  C   -0.663574
    62  H    0.275408
    63  H    0.196575
    64  H    0.217915
    65  C   -0.290999
    66  H    0.133708
    67  H    0.145654
    68  C   -0.473230
    69  H    0.148669
    70  H    0.153627
    71  H    0.146197
    72  C   -0.332125
    73  H    0.186706
    74  H    0.162663
    75  C   -0.342693
    76  H    0.198428
    77  H    0.170699
 Sum of Mulliken charges =  -0.00000

 Dipole moment (field-independent basis, Debye):
    X=             -2.7381    Y=             -2.0382    Z=             -6.2725  Tot=              7.1411
 Quadrupole moment (field-independent basis, Debye-Ang):
   XX=           -206.1819   YY=           -222.2653   ZZ=           -220.1455
   XY=            -12.5878   XZ=             -5.0453   YZ=             10.1365

 Normal termination of Gaussian 16 at Thu Feb  7 13:42:15 2019.
