 Gaussian 16, Revision A.03,
 Gaussian 16:  ES64L-G16RevA.03 25-Dec-2016

 ------------------------------------------
 #p M062X/6-31G* em=gd3 force int=ultrafine
 ------------------------------------------

 -----
 Title
 -----
 Symbolic Z-matrix:
 Charge =  0 Multiplicity = 1

                         Standard orientation:
 ---------------------------------------------------------------------
 Center     Atomic      Atomic             Coordinates (Angstroms)
 Number     Number       Type             X           Y           Z
 ---------------------------------------------------------------------
      1          6           0       -4.781979    0.423982   -0.534756
      2          6           0       -4.973316   -0.863034   -1.342833
      3          6           0       -3.648169   -1.319139   -1.966060
      4          6           0       -2.632786   -1.532476   -0.849567
      5          6           0       -2.395687   -0.219807   -0.058559
      6          6           0       -3.716765    0.258471    0.553888
      7          1           0       -3.775016   -2.240458   -2.544557
      8          1           0       -5.355597   -1.656897   -0.687791
      9          1           0       -5.717769   -0.712599   -2.130923
     10          1           0       -4.476294    1.230479   -1.213992
     11          1           0       -5.731454    0.727389   -0.081797
     12          1           0       -3.010446   -2.291925   -0.158117
     13          1           0       -2.079321    0.537863   -0.786882
     14          1           0       -4.057209   -0.463212    1.304057
     15          1           0       -3.533103    1.213994    1.056653
     16          1           0       -3.301890   -0.534978   -2.652899
     17          7           0       -1.311553   -2.017196   -1.300538
     18          6           0       -0.627400   -1.334294   -2.256779
     19          6           0       -0.613456   -2.808406   -0.442469
     20          6           0        0.728832   -1.382483   -2.353627
     21          1           0       -1.222133   -0.716554   -2.918443
     22          6           0        0.744154   -2.890588   -0.462814
     23          1           0       -1.202735   -3.315869    0.313678
     24          6           0        1.483912   -2.073113   -1.358613
     25          1           0        1.217659   -0.813172   -3.132501
     26          1           0        1.231130   -3.480373    0.300701
     27          7           0        2.804635   -1.960769   -1.273424
     28          6           0        3.533326   -2.401711   -0.073897
     29          1           0        3.422634   -3.479827    0.071024
     30          1           0        3.129594   -1.854076    0.790483
     31          6           0        3.529516   -0.892496   -1.974758
     32          1           0        3.777826   -1.214287   -2.993580
     33          1           0        2.896441   -0.001698   -2.007258
     34          7           0       -1.275426   -0.318900    0.863644
     35         16           0       -1.327440   -1.169768    2.252962
     36          8           0       -2.526046   -2.014417    2.233109
     37          8           0       -0.033636   -1.829834    2.447063
     38          6           0       -0.607901    2.690232    0.042074
     39          6           0       -0.134761    2.209409   -1.189144
     40          6           0       -0.919218    2.302196   -2.337213
     41          6           0       -2.193463    2.868290   -2.289475
     42          6           0       -2.676769    3.343963   -1.073781
     43          6           0       -1.886071    3.255449    0.072316
     44          1           0        0.826975    1.709658   -1.216491
     45          1           0       -0.525249    1.935178   -3.282780
     46          1           0       -2.798628    2.943925   -3.188731
     47          1           0       -3.666121    3.789520   -1.015560
     48          1           0       -2.271493    3.641279    1.014161
     49          8           0        0.700329    1.547952    1.894856
     50          1           0       -0.293049   -0.069572    0.551672
     51          6           0        1.842996    0.825175    1.254614
     52          8           0        1.442470    0.218028    0.156462
     53          8           0        2.230714   -0.058608    2.290921
     54          1           0        1.537058   -0.743140    2.313340
     55          6           0        3.041069    1.803262    1.135307
     56          1           0        2.992704    2.518890    1.966265
     57          1           0        3.937757    1.198943    1.322375
     58          6           0        0.232336    2.737353    1.322070
     59          1           0       -0.399070    3.199134    2.092437
     60          1           0        1.065000    3.437225    1.156156
     61          6           0       -1.487968    0.038701    3.546688
     62          1           0       -0.622326    0.700152    3.451703
     63          1           0       -2.423809    0.578814    3.393156
     64          1           0       -1.496414   -0.493486    4.499324
     65          6           0        3.216457    2.537759   -0.190734
     66          1           0        3.227156    1.804619   -1.006819
     67          1           0        2.365264    3.193072   -0.401093
     68          6           0        4.501822    3.363623   -0.211598
     69          1           0        4.635961    3.883413   -1.165306
     70          1           0        4.490703    4.116615    0.582687
     71          1           0        5.379110    2.725797   -0.046745
     72          6           0        4.968902   -1.989120   -0.378896
     73          1           0        5.565349   -1.889673    0.529761
     74          1           0        5.445367   -2.729676   -1.030700
     75          6           0        4.776060   -0.661201   -1.115276
     76          1           0        4.557360    0.124528   -0.387774
     77          1           0        5.640849   -0.359617   -1.709985
 ---------------------------------------------------------------------

 SCF Done:  E(RM062X) =  -1991.35861146     A.U. after   14 cycles

 The electronic state is 1-A.
 Alpha  occ. eigenvalues --  -90.14160 -19.61767 -19.61745 -19.58698 -19.56708
 Alpha  occ. eigenvalues --  -19.51288 -14.85165 -14.80450 -14.75715 -10.63418
 Alpha  occ. eigenvalues --  -10.62787 -10.62264 -10.62180 -10.60718 -10.59330
 Alpha  occ. eigenvalues --  -10.58486 -10.57994 -10.57937 -10.57151 -10.56889
 Alpha  occ. eigenvalues --  -10.56686 -10.55653 -10.55597 -10.55118 -10.54856
 Alpha  occ. eigenvalues --  -10.54833 -10.54779 -10.54717 -10.54567 -10.54394
 Alpha  occ. eigenvalues --  -10.54316 -10.54310 -10.53080 -10.51540 -10.51478
 Alpha  occ. eigenvalues --  -10.49714  -8.45136  -6.37353  -6.37331  -6.37173
 Alpha  occ. eigenvalues --   -1.21984  -1.13593  -1.13497  -1.10240  -1.09347
 Alpha  occ. eigenvalues --   -1.05875  -1.01716  -0.99340  -0.95736  -0.94984
 Alpha  occ. eigenvalues --   -0.93488  -0.90295  -0.88753  -0.85896  -0.85791
 Alpha  occ. eigenvalues --   -0.84819  -0.84702  -0.84245  -0.83052  -0.82684
 Alpha  occ. eigenvalues --   -0.76664  -0.76293  -0.75833  -0.74371  -0.72780
 Alpha  occ. eigenvalues --   -0.71637  -0.68327  -0.68237  -0.67937  -0.67196
 Alpha  occ. eigenvalues --   -0.66749  -0.65225  -0.64866  -0.63525  -0.60559
 Alpha  occ. eigenvalues --   -0.60403  -0.59783  -0.58993  -0.57806  -0.57587
 Alpha  occ. eigenvalues --   -0.57170  -0.56436  -0.55775  -0.55167  -0.54190
 Alpha  occ. eigenvalues --   -0.53536  -0.52651  -0.52446  -0.52421  -0.51901
 Alpha  occ. eigenvalues --   -0.51547  -0.51032  -0.50788  -0.49872  -0.49568
 Alpha  occ. eigenvalues --   -0.49157  -0.48830  -0.48206  -0.48134  -0.48028
 Alpha  occ. eigenvalues --   -0.47663  -0.47459  -0.46908  -0.46442  -0.46102
 Alpha  occ. eigenvalues --   -0.44882  -0.44730  -0.44134  -0.43873  -0.43259
 Alpha  occ. eigenvalues --   -0.42503  -0.42128  -0.41419  -0.41341  -0.41126
 Alpha  occ. eigenvalues --   -0.40899  -0.40474  -0.39995  -0.39821  -0.39337
 Alpha  occ. eigenvalues --   -0.39258  -0.39066  -0.38445  -0.37945  -0.37591
 Alpha  occ. eigenvalues --   -0.37386  -0.36733  -0.36569  -0.35727  -0.34900
 Alpha  occ. eigenvalues --   -0.34384  -0.33952  -0.31676  -0.31079  -0.29767
 Alpha  occ. eigenvalues --   -0.28882  -0.28598  -0.27638  -0.24881  -0.24436
 Alpha virt. eigenvalues --   -0.01514   0.00411   0.03559   0.03764   0.10143
 Alpha virt. eigenvalues --    0.11006   0.11650   0.12178   0.13183   0.13521
 Alpha virt. eigenvalues --    0.14206   0.14618   0.14759   0.15238   0.15600

 Mulliken charges:
               1
     1  C   -0.306249
     2  C   -0.307088
     3  C   -0.309378
     4  C   -0.060003
     5  C    0.056870
     6  C   -0.311653
     7  H    0.173914
     8  H    0.162795
     9  H    0.165444
    10  H    0.151077
    11  H    0.163250
    12  H    0.208892
    13  H    0.172930
    14  H    0.193005
    15  H    0.163611
    16  H    0.154164
    17  N   -0.430646
    18  C    0.067621
    19  C    0.063604
    20  C   -0.202221
    21  H    0.206584
    22  C   -0.209000
    23  H    0.245443
    24  C    0.446272
    25  H    0.191858
    26  H    0.211592
    27  N   -0.526431
    28  C   -0.171603
    29  H    0.169766
    30  H    0.230727
    31  C   -0.154630
    32  H    0.166199
    33  H    0.204688
    34  N   -0.816155
    35  S    1.253686
    36  O   -0.612195
    37  O   -0.607057
    38  C    0.085798
    39  C   -0.183130
    40  C   -0.189586
    41  C   -0.171014
    42  C   -0.163701
    43  C   -0.212170
    44  H    0.209785
    45  H    0.140670
    46  H    0.154876
    47  H    0.158579
    48  H    0.152490
    49  O   -0.550035
    50  H    0.448830
    51  C    0.725476
    52  O   -0.722544
    53  O   -0.718149
    54  H    0.445051
    55  C   -0.338453
    56  H    0.149096
    57  H    0.150849
    58  C   -0.092028
    59  H    0.140262
    60  H    0.147551
    61  C   -0.663223
    62  H    0.273038
    63  H    0.196275
    64  H    0.217529
    65  C   -0.293743
    66  H    0.136947
    67  H    0.146615
    68  C   -0.473477
    69  H    0.149079
    70  H    0.155215
    71  H    0.144321
    72  C   -0.331852
    73  H    0.187317
    74  H    0.163056
    75  C   -0.343379
    76  H    0.196911
    77  H    0.171184
 Sum of Mulliken charges =  -0.00000

 Dipole moment (field-independent basis, Debye):
    X=             -2.4932    Y=             -1.8856    Z=             -6.3805  Tot=              7.1050
 Quadrupole moment (field-independent basis, Debye-Ang):
   XX=           -205.5967   YY=           -222.9460   ZZ=           -219.8259
   XY=            -12.2985   XZ=             -5.3658   YZ=             10.0143

 Normal termination of Gaussian 16 at Thu Feb  7 15:14:18 2019.
