 Gaussian 16, Revision A.03,
 Gaussian 16:  ES64L-G16RevA.03 25-Dec-2016

 ------------------------------------------
 #p M062X/6-31G* em=gd3 force int=ultrafine
 ------------------------------------------

 -----
 Title
 -----
 Symbolic Z-matrix:
 Charge =  0 Multiplicity = 1

                         Standard orientation:
 ---------------------------------------------------------------------
 Center     Atomic      Atomic             Coordinates (Angstroms)
 Number     Number       Type             X           Y           Z
 ---------------------------------------------------------------------
      1          6           0       -4.841691    0.507464   -0.520979
      2          6           0       -5.006797   -0.760887   -1.363254
      3          6           0       -3.662129   -1.201993   -1.953991
      4          6           0       -2.675510   -1.450292   -0.817449
      5          6           0       -2.480013   -0.167325    0.026479
      6          6           0       -3.819720    0.304660    0.600773
      7          1           0       -3.770257   -2.104907   -2.564360
      8          1           0       -5.410896   -1.568250   -0.738500
      9          1           0       -5.724213   -0.592917   -2.172514
     10          1           0       -4.501312    1.327126   -1.168582
     11          1           0       -5.806029    0.808957   -0.099632
     12          1           0       -3.063957   -2.240504   -0.166907
     13          1           0       -2.125601    0.609923   -0.663294
     14          1           0       -4.187650   -0.432300    1.323234
     15          1           0       -3.644068    1.246031    1.134342
     16          1           0       -3.295480   -0.396745   -2.604738
     17          7           0       -1.341801   -1.911316   -1.260606
     18          6           0       -0.660682   -1.235925   -2.222992
     19          6           0       -0.644381   -2.727381   -0.427515
     20          6           0        0.690651   -1.326575   -2.360201
     21          1           0       -1.251493   -0.592945   -2.862413
     22          6           0        0.708802   -2.858771   -0.492970
     23          1           0       -1.227604   -3.231853    0.335037
     24          6           0        1.454203   -2.072809   -1.413892
     25          1           0        1.174716   -0.761701   -3.145804
     26          1           0        1.195078   -3.481392    0.244656
     27          7           0        2.782873   -2.043122   -1.391911
     28          6           0        3.524872   -2.574159   -0.237903
     29          1           0        3.386649   -3.655924   -0.153717
     30          1           0        3.154667   -2.069164    0.665332
     31          6           0        3.550854   -0.990573   -2.079492
     32          1           0        3.807254   -1.319059   -3.094452
     33          1           0        2.957900   -0.073857   -2.109342
     34          7           0       -1.394865   -0.316206    0.979201
     35         16           0       -1.431767   -1.219894    2.332756
     36          8           0       -2.642749   -2.043354    2.283275
     37          8           0       -0.144623   -1.901921    2.482492
     38          6           0       -0.587596    2.711796   -0.063406
     39          6           0       -0.062645    2.081570   -1.199273
     40          6           0       -0.741460    2.153543   -2.414951
     41          6           0       -1.962714    2.820949   -2.512961
     42          6           0       -2.499226    3.431921   -1.381013
     43          6           0       -1.810370    3.379690   -0.169385
     44          1           0        0.854361    1.500518   -1.091904
     45          1           0       -0.311347    1.683929   -3.297538
     46          1           0       -2.488677    2.870794   -3.462286
     47          1           0       -3.451812    3.951049   -1.441783
     48          1           0       -2.233852    3.859822    0.710646
     49          8           0        0.585336    1.368800    1.623093
     50          1           0       -0.559102    0.319248    0.967576
     51          6           0        2.072606    0.720742    1.198746
     52          8           0        1.973170    0.179183    0.052330
     53          8           0        2.211311   -0.138862    2.290951
     54          1           0        1.544542   -0.839557    2.167348
     55          6           0        3.080294    1.861642    1.387689
     56          1           0        2.773528    2.501366    2.223555
     57          1           0        4.019956    1.385754    1.699499
     58          6           0        0.146806    2.644974    1.269953
     59          1           0       -0.545542    3.004061    2.050487
     60          1           0        0.979189    3.366156    1.258103
     61          6           0       -1.521602   -0.040532    3.662581
     62          1           0       -0.658655    0.619374    3.525835
     63          1           0       -2.463209    0.504498    3.579745
     64          1           0       -1.462099   -0.585006    4.606119
     65          6           0        3.332479    2.676613    0.122373
     66          1           0        3.697056    2.003415   -0.662016
     67          1           0        2.394131    3.090155   -0.265476
     68          6           0        4.331494    3.806412    0.358411
     69          1           0        4.527104    4.373053   -0.557139
     70          1           0        3.957109    4.507319    1.112899
     71          1           0        5.287221    3.413498    0.722869
     72          6           0        4.965505   -2.175916   -0.537157
     73          1           0        5.573119   -2.140465    0.368974
     74          1           0        5.420510   -2.888058   -1.234709
     75          6           0        4.785885   -0.806965   -1.194994
     76          1           0        4.537931   -0.068822   -0.427010
     77          1           0        5.658617   -0.471805   -1.759495
 ---------------------------------------------------------------------

 SCF Done:  E(RM062X) =  -1991.35533626     A.U. after   15 cycles

 The electronic state is 1-A.
 Alpha  occ. eigenvalues --  -90.14461 -19.62184 -19.61849 -19.57786 -19.57653
 Alpha  occ. eigenvalues --  -19.51791 -14.85195 -14.80151 -14.75900 -10.63224
 Alpha  occ. eigenvalues --  -10.62732 -10.62636 -10.62142 -10.60984 -10.59655
 Alpha  occ. eigenvalues --  -10.57956 -10.57868 -10.57804 -10.57015 -10.56798
 Alpha  occ. eigenvalues --  -10.56665 -10.56251 -10.55784 -10.55023 -10.54976
 Alpha  occ. eigenvalues --  -10.54948 -10.54846 -10.54819 -10.54575 -10.54557
 Alpha  occ. eigenvalues --  -10.54256 -10.54244 -10.53089 -10.51206 -10.51134
 Alpha  occ. eigenvalues --  -10.49922  -8.45445  -6.37669  -6.37617  -6.37499
 Alpha  occ. eigenvalues --   -1.22275  -1.13453  -1.12868  -1.10470  -1.08982
 Alpha  occ. eigenvalues --   -1.05735  -1.02045  -1.01376  -0.95772  -0.95080
 Alpha  occ. eigenvalues --   -0.93474  -0.90138  -0.88615  -0.86362  -0.85606
 Alpha  occ. eigenvalues --   -0.84798  -0.84641  -0.83887  -0.83231  -0.82897
 Alpha  occ. eigenvalues --   -0.76593  -0.76260  -0.75613  -0.73686  -0.73083
 Alpha  occ. eigenvalues --   -0.71700  -0.68214  -0.68065  -0.67808  -0.67407
 Alpha  occ. eigenvalues --   -0.66415  -0.65390  -0.64804  -0.63346  -0.60482
 Alpha  occ. eigenvalues --   -0.60312  -0.59895  -0.59366  -0.57910  -0.57676
 Alpha  occ. eigenvalues --   -0.57194  -0.56341  -0.55539  -0.54878  -0.54259
 Alpha  occ. eigenvalues --   -0.53502  -0.52915  -0.52560  -0.52292  -0.51929
 Alpha  occ. eigenvalues --   -0.51583  -0.50963  -0.50239  -0.50004  -0.49488
 Alpha  occ. eigenvalues --   -0.49168  -0.48887  -0.48468  -0.48151  -0.48083
 Alpha  occ. eigenvalues --   -0.47729  -0.47523  -0.47061  -0.46504  -0.45946
 Alpha  occ. eigenvalues --   -0.45304  -0.45150  -0.44462  -0.44170  -0.43182
 Alpha  occ. eigenvalues --   -0.42470  -0.42298  -0.41236  -0.41036  -0.40823
 Alpha  occ. eigenvalues --   -0.40550  -0.40430  -0.40139  -0.39969  -0.39475
 Alpha  occ. eigenvalues --   -0.39079  -0.38987  -0.38673  -0.38169  -0.37690
 Alpha  occ. eigenvalues --   -0.37485  -0.36663  -0.36467  -0.35890  -0.35048
 Alpha  occ. eigenvalues --   -0.34699  -0.34283  -0.32169  -0.30967  -0.29874
 Alpha  occ. eigenvalues --   -0.28914  -0.28651  -0.27863  -0.25142  -0.24529
 Alpha virt. eigenvalues --   -0.01275   0.00542   0.03296   0.03746   0.10209
 Alpha virt. eigenvalues --    0.10679   0.11435   0.12471   0.13224   0.13343
 Alpha virt. eigenvalues --    0.14190   0.14408   0.15145   0.15516   0.15562

 Mulliken charges:
               1
     1  C   -0.306696
     2  C   -0.307668
     3  C   -0.311616
     4  C   -0.061761
     5  C    0.066440
     6  C   -0.306838
     7  H    0.174800
     8  H    0.163092
     9  H    0.166419
    10  H    0.152264
    11  H    0.164418
    12  H    0.208459
    13  H    0.173436
    14  H    0.190843
    15  H    0.159998
    16  H    0.156759
    17  N   -0.436198
    18  C    0.083480
    19  C    0.084149
    20  C   -0.213389
    21  H    0.203380
    22  C   -0.223109
    23  H    0.245427
    24  C    0.446943
    25  H    0.192171
    26  H    0.209497
    27  N   -0.519419
    28  C   -0.162737
    29  H    0.168518
    30  H    0.217399
    31  C   -0.145543
    32  H    0.161715
    33  H    0.204791
    34  N   -0.816233
    35  S    1.237912
    36  O   -0.606039
    37  O   -0.595820
    38  C    0.050269
    39  C   -0.198780
    40  C   -0.192469
    41  C   -0.173120
    42  C   -0.164661
    43  C   -0.205571
    44  H    0.233511
    45  H    0.140023
    46  H    0.155704
    47  H    0.159470
    48  H    0.154408
    49  O   -0.623971
    50  H    0.453908
    51  C    0.706399
    52  O   -0.661699
    53  O   -0.692723
    54  H    0.438228
    55  C   -0.338004
    56  H    0.149915
    57  H    0.150654
    58  C   -0.070042
    59  H    0.123339
    60  H    0.149951
    61  C   -0.667702
    62  H    0.265178
    63  H    0.199999
    64  H    0.222672
    65  C   -0.286295
    66  H    0.143416
    67  H    0.143569
    68  C   -0.475621
    69  H    0.149337
    70  H    0.149960
    71  H    0.148735
    72  C   -0.334703
    73  H    0.184376
    74  H    0.161230
    75  C   -0.338145
    76  H    0.204377
    77  H    0.165632
 Sum of Mulliken charges =  -0.00000

 Dipole moment (field-independent basis, Debye):
    X=             -3.0582    Y=             -1.5839    Z=             -5.8015  Tot=              6.7467
 Quadrupole moment (field-independent basis, Debye-Ang):
   XX=           -206.9557   YY=           -223.4428   ZZ=           -218.2257
   XY=            -13.5285   XZ=             -4.2473   YZ=             10.7427

 Normal termination of Gaussian 16 at Thu Feb  7 08:39:26 2019.
