 Gaussian 16, Revision A.03,
 Gaussian 16:  ES64L-G16RevA.03 25-Dec-2016

 ------------------------------------------
 #p M062X/6-31G* em=gd3 force int=ultrafine
 ------------------------------------------

 -----
 Title
 -----
 Symbolic Z-matrix:
 Charge =  0 Multiplicity = 1

                         Standard orientation:
 ---------------------------------------------------------------------
 Center     Atomic      Atomic             Coordinates (Angstroms)
 Number     Number       Type             X           Y           Z
 ---------------------------------------------------------------------
      1          6           0       -4.861658    0.490804   -0.552340
      2          6           0       -5.038524   -0.818105   -1.327758
      3          6           0       -3.701823   -1.292319   -1.910513
      4          6           0       -2.702250   -1.478001   -0.773582
      5          6           0       -2.492924   -0.149207   -0.007376
      6          6           0       -3.824129    0.347041    0.565044
      7          1           0       -3.817442   -2.227649   -2.468307
      8          1           0       -5.436776   -1.592047   -0.658557
      9          1           0       -5.765303   -0.689437   -2.135895
     10          1           0       -4.533210    1.277328   -1.245279
     11          1           0       -5.820311    0.811636   -0.132213
     12          1           0       -3.084837   -2.227876   -0.073632
     13          1           0       -2.157023    0.592695   -0.743208
     14          1           0       -4.182333   -0.354100    1.326204
     15          1           0       -3.645077    1.313336    1.049507
     16          1           0       -3.341981   -0.525798   -2.609961
     17          7           0       -1.374957   -1.965343   -1.203389
     18          6           0       -0.691377   -1.324074   -2.189133
     19          6           0       -0.680180   -2.752735   -0.339862
     20          6           0        0.659800   -1.417737   -2.317271
     21          1           0       -1.281328   -0.704308   -2.852370
     22          6           0        0.672743   -2.881957   -0.393733
     23          1           0       -1.265588   -3.226260    0.440654
     24          6           0        1.419745   -2.122909   -1.336092
     25          1           0        1.147183   -0.879552   -3.119208
     26          1           0        1.158284   -3.472633    0.370005
     27          7           0        2.746148   -2.082117   -1.303381
     28          6           0        3.484816   -2.563612   -0.125207
     29          1           0        3.343903   -3.640273    0.005767
     30          1           0        3.115152   -2.014645    0.752764
     31          6           0        3.508643   -1.047670   -2.021944
     32          1           0        3.763768   -1.403239   -3.028109
     33          1           0        2.908839   -0.136028   -2.074155
     34          7           0       -1.396687   -0.219235    0.944360
     35         16           0       -1.403014   -1.060810    2.345830
     36          8           0       -2.640108   -1.844264    2.373569
     37          8           0       -0.131638   -1.771379    2.484426
     38          6           0       -0.524916    2.649268   -0.088744
     39          6           0       -0.048800    2.063463   -1.270738
     40          6           0       -0.800355    2.131171   -2.443714
     41          6           0       -2.039915    2.769923   -2.464646
     42          6           0       -2.524018    3.349528   -1.293690
     43          6           0       -1.768575    3.288209   -0.122816
     44          1           0        0.887631    1.511103   -1.227587
     45          1           0       -0.407109    1.685174   -3.355331
     46          1           0       -2.618353    2.822972   -3.382922
     47          1           0       -3.487003    3.852835   -1.291859
     48          1           0       -2.154321    3.748445    0.784793
     49          8           0        0.730315    1.441745    1.724342
     50          1           0       -0.458889    0.124071    0.684203
     51          6           0        2.003165    0.778847    1.180117
     52          8           0        1.755766    0.188997    0.048212
     53          8           0        2.295691   -0.102459    2.250092
     54          1           0        1.588739   -0.772192    2.220428
     55          6           0        3.138180    1.828431    1.205150
     56          1           0        2.969256    2.529096    2.033209
     57          1           0        4.054969    1.281779    1.461047
     58          6           0        0.277461    2.664205    1.213721
     59          1           0       -0.379826    3.090447    1.985224
     60          1           0        1.110025    3.374548    1.102246
     61          6           0       -1.435527    0.173254    3.624274
     62          1           0       -0.545532    0.789650    3.465324
     63          1           0       -2.354733    0.751776    3.520101
     64          1           0       -1.403820   -0.343458    4.584997
     65          6           0        3.364932    2.581561   -0.103453
     66          1           0        3.610394    1.860029   -0.891508
     67          1           0        2.445852    3.074624   -0.440604
     68          6           0        4.477227    3.620407    0.027803
     69          1           0        4.663086    4.141598   -0.916456
     70          1           0        4.218574    4.373720    0.780501
     71          1           0        5.415319    3.151528    0.345678
     72          6           0        4.925739   -2.182084   -0.442548
     73          1           0        5.535999   -2.115335    0.459932
     74          1           0        5.376637   -2.919277   -1.116489
     75          6           0        4.745180   -0.836278   -1.145830
     76          1           0        4.501220   -0.075013   -0.399451
     77          1           0        5.616465   -0.517108   -1.721713
 ---------------------------------------------------------------------

 SCF Done:  E(RM062X) =  -1991.35618528     A.U. after   15 cycles

 The electronic state is 1-A.
 Alpha  occ. eigenvalues --  -90.14781 -19.62352 -19.62192 -19.58501 -19.56706
 Alpha  occ. eigenvalues --  -19.50502 -14.85281 -14.80167 -14.76799 -10.63262
 Alpha  occ. eigenvalues --  -10.62713 -10.62216 -10.61975 -10.61081 -10.59857
 Alpha  occ. eigenvalues --  -10.57937 -10.57863 -10.57704 -10.57090 -10.56932
 Alpha  occ. eigenvalues --  -10.56908 -10.56153 -10.55881 -10.55080 -10.55001
 Alpha  occ. eigenvalues --  -10.54912 -10.54764 -10.54753 -10.54665 -10.54541
 Alpha  occ. eigenvalues --  -10.54410 -10.54258 -10.52989 -10.51119 -10.51029
 Alpha  occ. eigenvalues --  -10.49426  -8.45750  -6.37977  -6.37935  -6.37788
 Alpha  occ. eigenvalues --   -1.22564  -1.13580  -1.12957  -1.10797  -1.09032
 Alpha  occ. eigenvalues --   -1.05711  -1.02488  -0.99338  -0.95893  -0.95102
 Alpha  occ. eigenvalues --   -0.93546  -0.90240  -0.88665  -0.86461  -0.85337
 Alpha  occ. eigenvalues --   -0.84901  -0.84844  -0.83848  -0.83171  -0.83071
 Alpha  occ. eigenvalues --   -0.76656  -0.75919  -0.75665  -0.74224  -0.73247
 Alpha  occ. eigenvalues --   -0.71808  -0.68230  -0.68163  -0.67813  -0.67515
 Alpha  occ. eigenvalues --   -0.66491  -0.65475  -0.64801  -0.63445  -0.60494
 Alpha  occ. eigenvalues --   -0.60310  -0.59889  -0.59521  -0.57849  -0.57686
 Alpha  occ. eigenvalues --   -0.57263  -0.56483  -0.55796  -0.55123  -0.54335
 Alpha  occ. eigenvalues --   -0.53608  -0.53038  -0.52686  -0.52463  -0.52047
 Alpha  occ. eigenvalues --   -0.51683  -0.50841  -0.50264  -0.49925  -0.49344
 Alpha  occ. eigenvalues --   -0.49174  -0.48994  -0.48365  -0.48130  -0.47923
 Alpha  occ. eigenvalues --   -0.47734  -0.47606  -0.47155  -0.46180  -0.45885
 Alpha  occ. eigenvalues --   -0.45156  -0.44926  -0.44334  -0.43848  -0.43259
 Alpha  occ. eigenvalues --   -0.42559  -0.42258  -0.41131  -0.41018  -0.40881
 Alpha  occ. eigenvalues --   -0.40686  -0.40492  -0.39986  -0.39848  -0.39348
 Alpha  occ. eigenvalues --   -0.39209  -0.38975  -0.38477  -0.38336  -0.37866
 Alpha  occ. eigenvalues --   -0.37297  -0.36543  -0.36407  -0.36079  -0.34982
 Alpha  occ. eigenvalues --   -0.34459  -0.34223  -0.31857  -0.31265  -0.29898
 Alpha  occ. eigenvalues --   -0.29012  -0.28719  -0.27756  -0.24049  -0.23910
 Alpha virt. eigenvalues --   -0.01341   0.00459   0.03336   0.03644   0.10126
 Alpha virt. eigenvalues --    0.10616   0.11352   0.12505   0.13178   0.13245
 Alpha virt. eigenvalues --    0.14110   0.14392   0.14849   0.15429   0.15561

 Mulliken charges:
               1
     1  C   -0.306405
     2  C   -0.307755
     3  C   -0.310624
     4  C   -0.058852
     5  C    0.058906
     6  C   -0.308373
     7  H    0.175444
     8  H    0.163170
     9  H    0.166831
    10  H    0.151041
    11  H    0.165052
    12  H    0.206818
    13  H    0.175833
    14  H    0.194302
    15  H    0.162945
    16  H    0.156148
    17  N   -0.436939
    18  C    0.074337
    19  C    0.072134
    20  C   -0.205858
    21  H    0.204322
    22  C   -0.215686
    23  H    0.243218
    24  C    0.449371
    25  H    0.192455
    26  H    0.210471
    27  N   -0.520407
    28  C   -0.167798
    29  H    0.167430
    30  H    0.224465
    31  C   -0.148283
    32  H    0.161412
    33  H    0.205977
    34  N   -0.799691
    35  S    1.243756
    36  O   -0.603847
    37  O   -0.593911
    38  C    0.060484
    39  C   -0.195724
    40  C   -0.191637
    41  C   -0.172547
    42  C   -0.165353
    43  C   -0.206849
    44  H    0.228459
    45  H    0.140952
    46  H    0.155511
    47  H    0.159036
    48  H    0.153006
    49  O   -0.577224
    50  H    0.439692
    51  C    0.718578
    52  O   -0.708347
    53  O   -0.709357
    54  H    0.433431
    55  C   -0.339903
    56  H    0.144313
    57  H    0.150001
    58  C   -0.083332
    59  H    0.133824
    60  H    0.152924
    61  C   -0.664832
    62  H    0.273896
    63  H    0.199499
    64  H    0.221099
    65  C   -0.286203
    66  H    0.138663
    67  H    0.141598
    68  C   -0.474201
    69  H    0.147837
    70  H    0.150527
    71  H    0.147645
    72  C   -0.333573
    73  H    0.185507
    74  H    0.160517
    75  C   -0.339795
    76  H    0.203504
    77  H    0.166967
 Sum of Mulliken charges =  -0.00000

 Dipole moment (field-independent basis, Debye):
    X=             -3.5002    Y=             -1.9880    Z=             -5.8627  Tot=              7.1115
 Quadrupole moment (field-independent basis, Debye-Ang):
   XX=           -208.0987   YY=           -221.7877   ZZ=           -219.1558
   XY=            -13.1371   XZ=             -4.3005   YZ=             10.5193

 Normal termination of Gaussian 16 at Thu Feb  7 11:24:49 2019.
