 Gaussian 16, Revision A.03,
 Gaussian 16:  ES64L-G16RevA.03 25-Dec-2016

 ------------------------------------------
 #p M062X/6-31G* em=gd3 force int=ultrafine
 ------------------------------------------

 -----
 Title
 -----
 Symbolic Z-matrix:
 Charge =  0 Multiplicity = 1

                         Standard orientation:
 ---------------------------------------------------------------------
 Center     Atomic      Atomic             Coordinates (Angstroms)
 Number     Number       Type             X           Y           Z
 ---------------------------------------------------------------------
      1          6           0       -4.862035    0.295032   -0.475929
      2          6           0       -4.980536   -0.987774   -1.304181
      3          6           0       -3.620898   -1.384708   -1.893021
      4          6           0       -2.623042   -1.569853   -0.754000
      5          6           0       -2.459601   -0.261955    0.071001
      6          6           0       -3.825084    0.147182    0.641655
      7          1           0       -3.698856   -2.299649   -2.491316
      8          1           0       -5.351187   -1.802506   -0.668516
      9          1           0       -5.706227   -0.858154   -2.113933
     10          1           0       -4.555380    1.118111   -1.137002
     11          1           0       -5.838309    0.565710   -0.059884
     12          1           0       -2.970471   -2.365295   -0.087329
     13          1           0       -2.190656    0.509132   -0.667324
     14          1           0       -4.153185   -0.597407    1.377367
     15          1           0       -3.691321    1.101495    1.165193
     16          1           0       -3.291891   -0.574861   -2.558723
     17          7           0       -1.269968   -1.983144   -1.198870
     18          6           0       -0.628155   -1.307677   -2.181072
     19          6           0       -0.537839   -2.745812   -0.352353
     20          6           0        0.727173   -1.360685   -2.339059
     21          1           0       -1.248310   -0.694934   -2.822527
     22          6           0        0.821362   -2.846807   -0.445589
     23          1           0       -1.091588   -3.235002    0.441899
     24          6           0        1.524300   -2.074519   -1.401074
     25          1           0        1.179640   -0.797216   -3.144580
     26          1           0        1.334695   -3.429224    0.306535
     27          7           0        2.863543   -2.004360   -1.401055
     28          6           0        3.631391   -2.496310   -0.248872
     29          1           0        3.551291   -3.583610   -0.163922
     30          1           0        3.237378   -2.035266    0.667651
     31          6           0        3.587449   -0.935697   -2.109621
     32          1           0        3.855288   -1.266924   -3.120009
     33          1           0        2.962008   -0.041178   -2.168882
     34          7           0       -1.337944   -0.304190    0.978883
     35         16           0       -1.336668   -1.199002    2.283383
     36          8           0       -2.417555   -2.207570    2.315422
     37          8           0        0.035352   -1.736604    2.490285
     38          6           0       -0.848037    2.806502   -0.106516
     39          6           0       -0.237753    2.139041   -1.176510
     40          6           0       -0.862678    2.110858   -2.421912
     41          6           0       -2.111515    2.706454   -2.606428
     42          6           0       -2.733936    3.340693   -1.534430
     43          6           0       -2.098579    3.389790   -0.296525
     44          1           0        0.702887    1.613789   -1.018262
     45          1           0       -0.373956    1.617464   -3.259659
     46          1           0       -2.597735    2.676621   -3.576969
     47          1           0       -3.711634    3.796864   -1.655853
     48          1           0       -2.580311    3.878488    0.546831
     49          8           0        0.296322    1.647431    1.691607
     50          1           0       -0.301085    0.917546    1.320918
     51          6           0        2.437924    0.581059    1.165957
     52          8           0        2.091965    0.172822    0.069415
     53          8           0        2.281482   -0.111705    2.286811
     54          1           0        1.546297   -0.772099    2.183008
     55          6           0        3.164238    1.890224    1.372525
     56          1           0        2.623543    2.428329    2.158178
     57          1           0        4.160880    1.667955    1.776970
     58          6           0       -0.196467    2.876659    1.257791
     59          1           0       -0.922707    3.294030    1.973656
     60          1           0        0.654281    3.574794    1.229142
     61          6           0       -1.567776   -0.078884    3.663505
     62          1           0       -0.780630    0.674304    3.578608
     63          1           0       -2.552597    0.384555    3.577803
     64          1           0       -1.477600   -0.635883    4.596878
     65          6           0        3.272401    2.726729    0.100294
     66          1           0        3.668466    2.107676   -0.713356
     67          1           0        2.270751    3.032628   -0.223367
     68          6           0        4.153902    3.957520    0.296474
     69          1           0        4.260929    4.525187   -0.632437
     70          1           0        3.734023    4.628900    1.052958
     71          1           0        5.156413    3.668892    0.630631
     72          6           0        5.053114   -2.025200   -0.540168
     73          1           0        5.647473   -1.936606    0.371504
     74          1           0        5.553438   -2.728979   -1.213003
     75          6           0        4.823817   -0.684194   -1.240603
     76          1           0        4.582166    0.081063   -0.497955
     77          1           0        5.681705   -0.343846   -1.824100
 ---------------------------------------------------------------------

 SCF Done:  E(RM062X) =  -1991.38242284     A.U. after   15 cycles

 The electronic state is 1-A.
 Alpha  occ. eigenvalues --  -90.10224 -19.63714 -19.60205 -19.58691 -19.58303
 Alpha  occ. eigenvalues --  -19.58283 -14.84791 -14.80413 -14.69261 -10.65879
 Alpha  occ. eigenvalues --  -10.63209 -10.62430 -10.61608 -10.59246 -10.59061
 Alpha  occ. eigenvalues --  -10.58888 -10.57823 -10.57350 -10.56764 -10.56713
 Alpha  occ. eigenvalues --  -10.55931 -10.55688 -10.55625 -10.55087 -10.55017
 Alpha  occ. eigenvalues --  -10.54933 -10.54653 -10.54608 -10.54515 -10.53978
 Alpha  occ. eigenvalues --  -10.53595 -10.53564 -10.53515 -10.53316 -10.52922
 Alpha  occ. eigenvalues --  -10.52618  -8.41176  -6.33413  -6.33322  -6.33244
 Alpha  occ. eigenvalues --   -1.19308  -1.17682  -1.12918  -1.10104  -1.09987
 Alpha  occ. eigenvalues --   -1.09036  -1.05981  -0.97540  -0.95369  -0.94728
 Alpha  occ. eigenvalues --   -0.92185  -0.89810  -0.88557  -0.88387  -0.85103
 Alpha  occ. eigenvalues --   -0.84816  -0.83712  -0.83546  -0.83273  -0.80000
 Alpha  occ. eigenvalues --   -0.79450  -0.76305  -0.75601  -0.74662  -0.70945
 Alpha  occ. eigenvalues --   -0.70274  -0.69392  -0.68654  -0.68343  -0.68104
 Alpha  occ. eigenvalues --   -0.66004  -0.64758  -0.63924  -0.63546  -0.61603
 Alpha  occ. eigenvalues --   -0.60272  -0.59367  -0.59117  -0.58349  -0.56159
 Alpha  occ. eigenvalues --   -0.55717  -0.55314  -0.55165  -0.54466  -0.53897
 Alpha  occ. eigenvalues --   -0.53465  -0.53046  -0.52634  -0.51833  -0.51635
 Alpha  occ. eigenvalues --   -0.51060  -0.50944  -0.50620  -0.50006  -0.49831
 Alpha  occ. eigenvalues --   -0.49735  -0.49515  -0.48763  -0.48309  -0.48033
 Alpha  occ. eigenvalues --   -0.47739  -0.47255  -0.47086  -0.46992  -0.45798
 Alpha  occ. eigenvalues --   -0.45521  -0.45162  -0.43966  -0.43715  -0.43476
 Alpha  occ. eigenvalues --   -0.43034  -0.42833  -0.42141  -0.42025  -0.41810
 Alpha  occ. eigenvalues --   -0.41222  -0.40927  -0.40515  -0.39876  -0.39653
 Alpha  occ. eigenvalues --   -0.39401  -0.39350  -0.39123  -0.38396  -0.38104
 Alpha  occ. eigenvalues --   -0.37403  -0.36286  -0.35826  -0.35326  -0.35171
 Alpha  occ. eigenvalues --   -0.34227  -0.32965  -0.31960  -0.31688  -0.31230
 Alpha  occ. eigenvalues --   -0.29969  -0.28784  -0.28333  -0.27293  -0.25335
 Alpha virt. eigenvalues --   -0.01067   0.00691   0.03111   0.03680   0.08718
 Alpha virt. eigenvalues --    0.10160   0.10970   0.11782   0.12966   0.13499
 Alpha virt. eigenvalues --    0.13772   0.14317   0.14991   0.15455   0.15873

 Mulliken charges:
               1
     1  C   -0.303866
     2  C   -0.304398
     3  C   -0.309872
     4  C   -0.071198
     5  C    0.068974
     6  C   -0.304765
     7  H    0.167091
     8  H    0.161477
     9  H    0.159291
    10  H    0.144778
    11  H    0.157116
    12  H    0.208815
    13  H    0.140150
    14  H    0.181775
    15  H    0.150100
    16  H    0.149824
    17  N   -0.424347
    18  C    0.097111
    19  C    0.092187
    20  C   -0.226304
    21  H    0.204480
    22  C   -0.227629
    23  H    0.258935
    24  C    0.426571
    25  H    0.187388
    26  H    0.207815
    27  N   -0.526266
    28  C   -0.159102
    29  H    0.178105
    30  H    0.197760
    31  C   -0.145403
    32  H    0.169473
    33  H    0.193842
    34  N   -0.770554
    35  S    1.245472
    36  O   -0.637505
    37  O   -0.668097
    38  C    0.051968
    39  C   -0.176677
    40  C   -0.188856
    41  C   -0.169501
    42  C   -0.160465
    43  C   -0.199929
    44  H    0.204260
    45  H    0.139888
    46  H    0.157276
    47  H    0.162483
    48  H    0.158695
    49  O   -0.717885
    50  H    0.486511
    51  C    0.665968
    52  O   -0.522776
    53  O   -0.645521
    54  H    0.482624
    55  C   -0.374632
    56  H    0.202529
    57  H    0.167466
    58  C   -0.063147
    59  H    0.126463
    60  H    0.143298
    61  C   -0.664728
    62  H    0.231208
    63  H    0.184974
    64  H    0.205474
    65  C   -0.290984
    66  H    0.147283
    67  H    0.162392
    68  C   -0.480692
    69  H    0.159972
    70  H    0.158852
    71  H    0.152177
    72  C   -0.335912
    73  H    0.184190
    74  H    0.169547
    75  C   -0.335425
    76  H    0.179791
    77  H    0.172619
 Sum of Mulliken charges =  -0.00000

 Dipole moment (field-independent basis, Debye):
    X=              1.6876    Y=              0.1362    Z=             -6.7515  Tot=              6.9606
 Quadrupole moment (field-independent basis, Debye-Ang):
   XX=           -200.2309   YY=           -222.4735   ZZ=           -222.8982
   XY=            -11.5708   XZ=              1.0192   YZ=             13.1313

 Normal termination of Gaussian 16 at Thu Feb  7 21:44:17 2019.
