 Gaussian 16, Revision A.03,
 Gaussian 16:  ES64L-G16RevA.03 25-Dec-2016

 ------------------------------------------
 #p M062X/6-31G* em=gd3 force int=ultrafine
 ------------------------------------------

 -----
 Title
 -----
 Symbolic Z-matrix:
 Charge =  0 Multiplicity = 1

                         Standard orientation:
 ---------------------------------------------------------------------
 Center     Atomic      Atomic             Coordinates (Angstroms)
 Number     Number       Type             X           Y           Z
 ---------------------------------------------------------------------
      1          6           0       -4.869868    0.093585   -0.431052
      2          6           0       -4.919197   -1.195021   -1.257602
      3          6           0       -3.540916   -1.519080   -1.846548
      4          6           0       -2.534792   -1.640981   -0.706647
      5          6           0       -2.430186   -0.313659    0.097788
      6          6           0       -3.815278    0.012307    0.676862
      7          1           0       -3.568394   -2.443982   -2.434122
      8          1           0       -5.244337   -2.028474   -0.621142
      9          1           0       -5.651736   -1.105827   -2.066602
     10          1           0       -4.620464    0.933119   -1.095220
     11          1           0       -5.856794    0.303740   -0.005171
     12          1           0       -2.850724   -2.437124   -0.027140
     13          1           0       -2.214008    0.462796   -0.651199
     14          1           0       -4.089514   -0.754654    1.412407
     15          1           0       -3.740292    0.971608    1.203023
     16          1           0       -3.257120   -0.699349   -2.520924
     17          7           0       -1.171358   -2.014719   -1.149311
     18          6           0       -0.557359   -1.337043   -2.146277
     19          6           0       -0.418477   -2.765301   -0.310890
     20          6           0        0.796203   -1.368811   -2.322499
     21          1           0       -1.199143   -0.744145   -2.785147
     22          6           0        0.940515   -2.841958   -0.420449
     23          1           0       -0.955321   -3.258796    0.492154
     24          6           0        1.615621   -2.060315   -1.387802
     25          1           0        1.229087   -0.810064   -3.141767
     26          1           0        1.475391   -3.414797    0.324012
     27          7           0        2.952120   -1.964608   -1.403590
     28          6           0        3.746933   -2.453388   -0.269928
     29          1           0        3.692730   -3.543800   -0.200050
     30          1           0        3.353545   -2.015327    0.658162
     31          6           0        3.647113   -0.889832   -2.128059
     32          1           0        3.907180   -1.223149   -3.140215
     33          1           0        3.004148   -0.007508   -2.184471
     34          7           0       -1.304351   -0.273757    1.007945
     35         16           0       -1.266761   -1.207762    2.280781
     36          8           0       -2.263961   -2.301315    2.259841
     37          8           0        0.131145   -1.661002    2.518591
     38          6           0       -1.095638    2.860549   -0.169473
     39          6           0       -0.385788    2.182250   -1.166392
     40          6           0       -0.928102    2.059485   -2.443737
     41          6           0       -2.193365    2.571956   -2.732220
     42          6           0       -2.913712    3.222113   -1.732583
     43          6           0       -2.361438    3.367151   -0.461941
     44          1           0        0.566737    1.715630   -0.921137
     45          1           0       -0.360269    1.553741   -3.221506
     46          1           0       -2.616081    2.466544   -3.727017
     47          1           0       -3.905159    3.614835   -1.938616
     48          1           0       -2.924310    3.870780    0.320984
     49          8           0        0.232083    1.910183    1.626872
     50          1           0       -0.284208    1.096470    1.351260
     51          6           0        2.438596    0.649311    1.215178
     52          8           0        2.116504    0.210350    0.124435
     53          8           0        2.214858    0.019110    2.356609
     54          1           0        1.513036   -0.680197    2.244371
     55          6           0        3.193369    1.944363    1.403901
     56          1           0        2.709877    2.475778    2.228880
     57          1           0        4.212495    1.700773    1.736661
     58          6           0       -0.507374    3.023525    1.216571
     59          1           0       -1.320107    3.261460    1.922907
     60          1           0        0.178210    3.883463    1.223873
     61          6           0       -1.636461   -0.172437    3.693965
     62          1           0       -0.930162    0.661000    3.671502
     63          1           0       -2.661997    0.188252    3.593583
     64          1           0       -1.519191   -0.760947    4.604904
     65          6           0        3.218238    2.794976    0.140562
     66          1           0        3.644476    2.213314   -0.685886
     67          1           0        2.184921    3.017938   -0.148117
     68          6           0        4.000476    4.091105    0.328883
     69          1           0        4.018530    4.682103   -0.591402
     70          1           0        3.552149    4.707892    1.114834
     71          1           0        5.037442    3.888388    0.618323
     72          6           0        5.154174   -1.947583   -0.575136
     73          1           0        5.754003   -1.843578    0.331227
     74          1           0        5.666387   -2.640722   -1.250266
     75          6           0        4.888108   -0.612576   -1.274943
     76          1           0        4.636822    0.149511   -0.531772
     77          1           0        5.732062   -0.257661   -1.869952
 ---------------------------------------------------------------------

 SCF Done:  E(RM062X) =  -1991.38881308     A.U. after   15 cycles

 The electronic state is 1-A.
 Alpha  occ. eigenvalues --  -90.10347 -19.63378 -19.60090 -19.59222 -19.58558
 Alpha  occ. eigenvalues --  -19.58340 -14.84799 -14.80497 -14.69375 -10.65479
 Alpha  occ. eigenvalues --  -10.63226 -10.62402 -10.61504 -10.59134 -10.59056
 Alpha  occ. eigenvalues --  -10.59055 -10.57822 -10.57420 -10.56814 -10.56655
 Alpha  occ. eigenvalues --  -10.56032 -10.55746 -10.55525 -10.54977 -10.54920
 Alpha  occ. eigenvalues --  -10.54869 -10.54594 -10.54553 -10.54499 -10.53787
 Alpha  occ. eigenvalues --  -10.53684 -10.53562 -10.53184 -10.53103 -10.52620
 Alpha  occ. eigenvalues --  -10.52620  -8.41311  -6.33549  -6.33456  -6.33376
 Alpha  occ. eigenvalues --   -1.19125  -1.17869  -1.12934  -1.10276  -1.09855
 Alpha  occ. eigenvalues --   -1.09135  -1.06136  -0.97533  -0.95267  -0.94793
 Alpha  occ. eigenvalues --   -0.92184  -0.89849  -0.88578  -0.88091  -0.85022
 Alpha  occ. eigenvalues --   -0.84940  -0.83652  -0.83505  -0.83301  -0.80175
 Alpha  occ. eigenvalues --   -0.79165  -0.76346  -0.75652  -0.74683  -0.70937
 Alpha  occ. eigenvalues --   -0.70194  -0.69109  -0.68711  -0.68356  -0.68016
 Alpha  occ. eigenvalues --   -0.65822  -0.64726  -0.63937  -0.63427  -0.61616
 Alpha  occ. eigenvalues --   -0.60264  -0.59387  -0.58995  -0.58352  -0.56165
 Alpha  occ. eigenvalues --   -0.55452  -0.55168  -0.55067  -0.54107  -0.53696
 Alpha  occ. eigenvalues --   -0.53441  -0.53070  -0.52427  -0.51956  -0.51713
 Alpha  occ. eigenvalues --   -0.51129  -0.50986  -0.50610  -0.50141  -0.49829
 Alpha  occ. eigenvalues --   -0.49593  -0.49503  -0.48823  -0.48344  -0.47994
 Alpha  occ. eigenvalues --   -0.47790  -0.47173  -0.46980  -0.46975  -0.45924
 Alpha  occ. eigenvalues --   -0.45794  -0.45238  -0.43948  -0.43650  -0.43424
 Alpha  occ. eigenvalues --   -0.42771  -0.42506  -0.42230  -0.41953  -0.41891
 Alpha  occ. eigenvalues --   -0.41157  -0.40862  -0.40558  -0.39907  -0.39535
 Alpha  occ. eigenvalues --   -0.39362  -0.39217  -0.38800  -0.38383  -0.37887
 Alpha  occ. eigenvalues --   -0.37316  -0.36220  -0.35856  -0.35350  -0.35119
 Alpha  occ. eigenvalues --   -0.34378  -0.33102  -0.32066  -0.31706  -0.31498
 Alpha  occ. eigenvalues --   -0.29861  -0.28884  -0.28317  -0.27450  -0.25394
 Alpha virt. eigenvalues --   -0.01024   0.00654   0.03276   0.03784   0.09065
 Alpha virt. eigenvalues --    0.10157   0.10909   0.11806   0.12983   0.13507
 Alpha virt. eigenvalues --    0.13867   0.14259   0.15073   0.15488   0.15775

 Mulliken charges:
               1
     1  C   -0.303913
     2  C   -0.304182
     3  C   -0.309649
     4  C   -0.073306
     5  C    0.062784
     6  C   -0.305094
     7  H    0.166069
     8  H    0.160945
     9  H    0.159126
    10  H    0.146170
    11  H    0.156694
    12  H    0.212688
    13  H    0.141444
    14  H    0.179364
    15  H    0.149566
    16  H    0.150525
    17  N   -0.424286
    18  C    0.099814
    19  C    0.083910
    20  C   -0.227718
    21  H    0.204958
    22  C   -0.226811
    23  H    0.264177
    24  C    0.428135
    25  H    0.188130
    26  H    0.207090
    27  N   -0.528688
    28  C   -0.157800
    29  H    0.178366
    30  H    0.199240
    31  C   -0.146922
    32  H    0.169562
    33  H    0.195624
    34  N   -0.755878
    35  S    1.249508
    36  O   -0.646545
    37  O   -0.670355
    38  C    0.048648
    39  C   -0.176955
    40  C   -0.187199
    41  C   -0.169839
    42  C   -0.161943
    43  C   -0.198140
    44  H    0.203791
    45  H    0.139188
    46  H    0.156423
    47  H    0.161875
    48  H    0.157006
    49  O   -0.712889
    50  H    0.481924
    51  C    0.648960
    52  O   -0.522852
    53  O   -0.645687
    54  H    0.485682
    55  C   -0.368298
    56  H    0.201050
    57  H    0.164234
    58  C   -0.066385
    59  H    0.128129
    60  H    0.156428
    61  C   -0.657203
    62  H    0.220129
    63  H    0.187846
    64  H    0.207710
    65  C   -0.287361
    66  H    0.143891
    67  H    0.165169
    68  C   -0.480348
    69  H    0.158602
    70  H    0.158470
    71  H    0.150496
    72  C   -0.337262
    73  H    0.184208
    74  H    0.170010
    75  C   -0.335789
    76  H    0.182336
    77  H    0.173206
 Sum of Mulliken charges =  -0.00000

 Dipole moment (field-independent basis, Debye):
    X=              1.5447    Y=             -0.3678    Z=             -6.5430  Tot=              6.7329
 Quadrupole moment (field-independent basis, Debye-Ang):
   XX=           -198.3307   YY=           -222.9677   ZZ=           -222.0300
   XY=            -11.9298   XZ=             -0.9938   YZ=             12.4404

 Normal termination of Gaussian 16 at Fri Feb  8 00:10:39 2019.
