 Gaussian 16, Revision A.03,
 Gaussian 16:  ES64L-G16RevA.03 25-Dec-2016

 ------------------------------------------
 #p M062X/6-31G* em=gd3 force int=ultrafine
 ------------------------------------------

 -----
 Title
 -----
 Symbolic Z-matrix:
 Charge =  0 Multiplicity = 1

                         Standard orientation:
 ---------------------------------------------------------------------
 Center     Atomic      Atomic             Coordinates (Angstroms)
 Number     Number       Type             X           Y           Z
 ---------------------------------------------------------------------
      1          6           0       -4.844600    0.390736   -0.506898
      2          6           0       -4.980111   -0.880538   -1.350098
      3          6           0       -3.624457   -1.287880   -1.939796
      4          6           0       -2.634032   -1.505607   -0.800863
      5          6           0       -2.456003   -0.218082    0.046337
      6          6           0       -3.815067    0.214851    0.613882
      7          1           0       -3.710389   -2.194755   -2.548569
      8          1           0       -5.364642   -1.698179   -0.726313
      9          1           0       -5.701079   -0.730408   -2.160263
     10          1           0       -4.526877    1.217848   -1.157033
     11          1           0       -5.817006    0.668255   -0.086712
     12          1           0       -2.999930   -2.304219   -0.148007
     13          1           0       -2.142659    0.565337   -0.659623
     14          1           0       -4.162571   -0.531507    1.337425
     15          1           0       -3.668896    1.161725    1.147299
     16          1           0       -3.280881   -0.474145   -2.592967
     17          7           0       -1.288155   -1.937445   -1.247002
     18          6           0       -0.628555   -1.251780   -2.211645
     19          6           0       -0.574369   -2.734080   -0.414632
     20          6           0        0.726138   -1.319786   -2.358818
     21          1           0       -1.234262   -0.616992   -2.845390
     22          6           0        0.783429   -2.846749   -0.493376
     23          1           0       -1.143035   -3.242288    0.356498
     24          6           0        1.505311   -2.058000   -1.423715
     25          1           0        1.193457   -0.744870   -3.147500
     26          1           0        1.283229   -3.454702    0.247646
     27          7           0        2.841631   -1.998250   -1.405635
     28          6           0        3.592936   -2.508547   -0.250091
     29          1           0        3.489001   -3.593710   -0.167240
     30          1           0        3.204533   -2.033996    0.662069
     31          6           0        3.581687   -0.924135   -2.090054
     32          1           0        3.851245   -1.241661   -3.104247
     33          1           0        2.966426   -0.021896   -2.133393
     34          7           0       -1.347672   -0.329210    0.971705
     35         16           0       -1.388896   -1.227551    2.298985
     36          8           0       -2.543987   -2.141010    2.283257
     37          8           0       -0.058592   -1.848902    2.484765
     38          6           0       -0.730360    2.768778   -0.064307
     39          6           0       -0.155988    2.125145   -1.169631
     40          6           0       -0.804477    2.151906   -2.402329
     41          6           0       -2.045699    2.777136   -2.539270
     42          6           0       -2.629289    3.392150   -1.434452
     43          6           0       -1.966668    3.389617   -0.210081
     44          1           0        0.773575    1.572059   -1.041716
     45          1           0       -0.343594    1.676833   -3.266679
     46          1           0       -2.553445    2.788991   -3.498931
     47          1           0       -3.598540    3.873335   -1.519016
     48          1           0       -2.415398    3.859806    0.661608
     49          8           0        0.282126    1.415808    1.626946
     50          1           0       -0.493196    0.602748    1.170610
     51          6           0        2.345060    0.592466    1.172878
     52          8           0        2.076588    0.154663    0.066766
     53          8           0        2.248677   -0.137663    2.289118
     54          1           0        1.532496   -0.805780    2.177533
     55          6           0        3.101011    1.883375    1.393607
     56          1           0        2.626316    2.451303    2.201154
     57          1           0        4.085867    1.576309    1.771663
     58          6           0       -0.073045    2.706836    1.298488
     59          1           0       -0.764121    3.146982    2.040731
     60          1           0        0.811525    3.375876    1.297067
     61          6           0       -1.538361   -0.071781    3.654897
     62          1           0       -0.716695    0.637555    3.515758
     63          1           0       -2.503882    0.431255    3.577956
     64          1           0       -1.450440   -0.614843    4.596916
     65          6           0        3.275845    2.727832    0.133622
     66          1           0        3.662355    2.092633   -0.671843
     67          1           0        2.304707    3.094421   -0.217976
     68          6           0        4.219299    3.906014    0.368155
     69          1           0        4.380026    4.481039   -0.548549
     70          1           0        3.818659    4.588840    1.125035
     71          1           0        5.196236    3.558345    0.721820
     72          6           0        5.022974   -2.063396   -0.536581
     73          1           0        5.622836   -2.006561    0.373767
     74          1           0        5.504301   -2.762947   -1.227898
     75          6           0        4.812143   -0.703798   -1.205378
     76          1           0        4.562291    0.040766   -0.444317
     77          1           0        5.677164   -0.352904   -1.771517
 ---------------------------------------------------------------------

 SCF Done:  E(RM062X) =  -1991.36575186     A.U. after   15 cycles

 The electronic state is 1-A.
 Alpha  occ. eigenvalues --  -90.11651 -19.62911 -19.59669 -19.59557 -19.59121
 Alpha  occ. eigenvalues --  -19.54882 -14.85076 -14.80530 -14.71293 -10.65501
 Alpha  occ. eigenvalues --  -10.63413 -10.62649 -10.62011 -10.59856 -10.58964
 Alpha  occ. eigenvalues --  -10.58831 -10.57977 -10.57644 -10.57051 -10.55982
 Alpha  occ. eigenvalues --  -10.55836 -10.55641 -10.55532 -10.54936 -10.54668
 Alpha  occ. eigenvalues --  -10.54595 -10.54503 -10.54077 -10.53950 -10.53883
 Alpha  occ. eigenvalues --  -10.53662 -10.53303 -10.53153 -10.53098 -10.53055
 Alpha  occ. eigenvalues --  -10.52589  -8.42634  -6.34863  -6.34785  -6.34701
 Alpha  occ. eigenvalues --   -1.19315  -1.18360  -1.13250  -1.09642  -1.08791
 Alpha  occ. eigenvalues --   -1.07572  -1.05528  -0.98701  -0.95184  -0.94757
 Alpha  occ. eigenvalues --   -0.92788  -0.90090  -0.88731  -0.87949  -0.84801
 Alpha  occ. eigenvalues --   -0.84457  -0.84024  -0.83941  -0.83004  -0.80893
 Alpha  occ. eigenvalues --   -0.78965  -0.76542  -0.75792  -0.72736  -0.71510
 Alpha  occ. eigenvalues --   -0.70848  -0.68967  -0.68620  -0.68414  -0.67598
 Alpha  occ. eigenvalues --   -0.65540  -0.64773  -0.64127  -0.63086  -0.62337
 Alpha  occ. eigenvalues --   -0.60422  -0.59816  -0.58479  -0.58230  -0.56506
 Alpha  occ. eigenvalues --   -0.56013  -0.55693  -0.54954  -0.54500  -0.53754
 Alpha  occ. eigenvalues --   -0.53494  -0.53280  -0.52582  -0.51905  -0.51537
 Alpha  occ. eigenvalues --   -0.51104  -0.51057  -0.50687  -0.50418  -0.49923
 Alpha  occ. eigenvalues --   -0.49709  -0.49234  -0.48563  -0.48400  -0.47540
 Alpha  occ. eigenvalues --   -0.47235  -0.46930  -0.46794  -0.46315  -0.46117
 Alpha  occ. eigenvalues --   -0.45767  -0.45295  -0.44389  -0.43586  -0.43492
 Alpha  occ. eigenvalues --   -0.43041  -0.42525  -0.42060  -0.41691  -0.41623
 Alpha  occ. eigenvalues --   -0.41176  -0.40692  -0.40339  -0.40115  -0.39534
 Alpha  occ. eigenvalues --   -0.39331  -0.39003  -0.38845  -0.38713  -0.37835
 Alpha  occ. eigenvalues --   -0.37531  -0.36889  -0.36311  -0.35621  -0.34917
 Alpha  occ. eigenvalues --   -0.34382  -0.33439  -0.32766  -0.31160  -0.29599
 Alpha  occ. eigenvalues --   -0.29243  -0.28533  -0.27543  -0.26750  -0.25702
 Alpha virt. eigenvalues --   -0.01326   0.00471   0.03580   0.04282   0.09959
 Alpha virt. eigenvalues --    0.10203   0.11195   0.11556   0.12686   0.13401
 Alpha virt. eigenvalues --    0.13804   0.14334   0.15177   0.15342   0.15668

 Mulliken charges:
               1
     1  C   -0.305360
     2  C   -0.305542
     3  C   -0.310543
     4  C   -0.066803
     5  C    0.076129
     6  C   -0.306190
     7  H    0.169031
     8  H    0.161869
     9  H    0.161665
    10  H    0.148344
    11  H    0.159601
    12  H    0.208539
    13  H    0.154559
    14  H    0.186185
    15  H    0.155589
    16  H    0.153119
    17  N   -0.427838
    18  C    0.094783
    19  C    0.095770
    20  C   -0.223846
    21  H    0.206304
    22  C   -0.227709
    23  H    0.253500
    24  C    0.428183
    25  H    0.190089
    26  H    0.208422
    27  N   -0.522834
    28  C   -0.159862
    29  H    0.176610
    30  H    0.200070
    31  C   -0.146307
    32  H    0.169022
    33  H    0.197097
    34  N   -0.817013
    35  S    1.248608
    36  O   -0.623322
    37  O   -0.645121
    38  C    0.056819
    39  C   -0.185778
    40  C   -0.189615
    41  C   -0.173661
    42  C   -0.161055
    43  C   -0.202856
    44  H    0.204971
    45  H    0.136138
    46  H    0.154033
    47  H    0.158836
    48  H    0.156085
    49  O   -0.725333
    50  H    0.483699
    51  C    0.686264
    52  O   -0.534319
    53  O   -0.649135
    54  H    0.472950
    55  C   -0.370592
    56  H    0.195960
    57  H    0.164574
    58  C   -0.042001
    59  H    0.103970
    60  H    0.118625
    61  C   -0.671041
    62  H    0.254295
    63  H    0.190262
    64  H    0.209330
    65  C   -0.292470
    66  H    0.144904
    67  H    0.165633
    68  C   -0.479918
    69  H    0.158545
    70  H    0.158949
    71  H    0.150623
    72  C   -0.334754
    73  H    0.184389
    74  H    0.168279
    75  C   -0.335528
    76  H    0.182835
    77  H    0.172288
 Sum of Mulliken charges =  -0.00000

 Dipole moment (field-independent basis, Debye):
    X=              0.9828    Y=             -0.9806    Z=             -6.4347  Tot=              6.5828
 Quadrupole moment (field-independent basis, Debye-Ang):
   XX=           -200.7711   YY=           -224.5403   ZZ=           -221.3429
   XY=            -11.1490   XZ=              0.0870   YZ=             12.0563

 Normal termination of Gaussian 16 at Thu Feb  7 19:59:42 2019.
