 Gaussian 16, Revision A.03,
 Gaussian 16:  ES64L-G16RevA.03 25-Dec-2016

 ------------------------------------------
 #p M062X/6-31G* em=gd3 force int=ultrafine
 ------------------------------------------

 -----
 Title
 -----
 Symbolic Z-matrix:
 Charge =  0 Multiplicity = 1

                         Standard orientation:
 ---------------------------------------------------------------------
 Center     Atomic      Atomic             Coordinates (Angstroms)
 Number     Number       Type             X           Y           Z
 ---------------------------------------------------------------------
      1          6           0       -4.844624    0.535736   -0.521132
      2          6           0       -5.018498   -0.731414   -1.363427
      3          6           0       -3.677273   -1.181151   -1.955559
      4          6           0       -2.690924   -1.436293   -0.820267
      5          6           0       -2.487792   -0.154704    0.023780
      6          6           0       -3.823338    0.325902    0.599801
      7          1           0       -3.791792   -2.083009   -2.566260
      8          1           0       -5.427185   -1.536138   -0.738272
      9          1           0       -5.735654   -0.558728   -2.171902
     10          1           0       -4.499437    1.353398   -1.168731
     11          1           0       -5.806585    0.843374   -0.098814
     12          1           0       -3.083425   -2.224486   -0.169589
     13          1           0       -2.128301    0.620892   -0.665169
     14          1           0       -4.195650   -0.408707    1.322265
     15          1           0       -3.640617    1.265695    1.133659
     16          1           0       -3.305916   -0.378127   -2.606358
     17          7           0       -1.360179   -1.904132   -1.264456
     18          6           0       -0.675108   -1.230071   -2.225690
     19          6           0       -0.666118   -2.723705   -0.431394
     20          6           0        0.675863   -1.324530   -2.360659
     21          1           0       -1.262961   -0.585041   -2.865783
     22          6           0        0.686541   -2.858697   -0.494492
     23          1           0       -1.251992   -3.227540    0.329529
     24          6           0        1.436061   -2.073429   -1.413240
     25          1           0        1.163098   -0.760265   -3.144745
     26          1           0        1.169891   -3.483294    0.243355
     27          7           0        2.764049   -2.048964   -1.390424
     28          6           0        3.504199   -2.583629   -0.236770
     29          1           0        3.358088   -3.664196   -0.150634
     30          1           0        3.139641   -2.072740    0.665491
     31          6           0        3.536555   -0.999218   -2.077285
     32          1           0        3.789032   -1.327232   -3.093430
     33          1           0        2.948339   -0.079374   -2.102444
     34          7           0       -1.405434   -0.307807    0.978847
     35         16           0       -1.439926   -1.212366    2.333190
     36          8           0       -2.662386   -2.018315    2.289849
     37          8           0       -0.160258   -1.908716    2.472756
     38          6           0       -0.552964    2.696521   -0.059217
     39          6           0       -0.040739    2.075326   -1.205872
     40          6           0       -0.731693    2.159994   -2.414059
     41          6           0       -1.949949    2.834716   -2.495349
     42          6           0       -2.472578    3.439066   -1.353350
     43          6           0       -1.773404    3.371574   -0.148523
     44          1           0        0.875292    1.490538   -1.110126
     45          1           0       -0.312063    1.695588   -3.304420
     46          1           0       -2.483976    2.895958   -3.439514
     47          1           0       -3.421956    3.965288   -1.401121
     48          1           0       -2.186155    3.847197    0.739023
     49          8           0        0.625528    1.351773    1.636123
     50          1           0       -0.548454    0.284024    0.931178
     51          6           0        2.055898    0.724566    1.200442
     52          8           0        1.952514    0.179678    0.046622
     53          8           0        2.227253   -0.154614    2.283171
     54          1           0        1.555766   -0.850958    2.164086
     55          6           0        3.095837    1.843345    1.377133
     56          1           0        2.817262    2.490377    2.218036
     57          1           0        4.027062    1.344431    1.676208
     58          6           0        0.191930    2.628680    1.268413
     59          1           0       -0.493120    2.989235    2.052834
     60          1           0        1.027751    3.343899    1.250012
     61          6           0       -1.508328   -0.034010    3.664743
     62          1           0       -0.633859    0.610835    3.531104
     63          1           0       -2.440509    0.527181    3.583832
     64          1           0       -1.458484   -0.582583    4.606541
     65          6           0        3.354719    2.656515    0.111396
     66          1           0        3.709489    1.979393   -0.673957
     67          1           0        2.421876    3.082625   -0.276547
     68          6           0        4.367513    3.774351    0.346692
     69          1           0        4.571111    4.337854   -0.569116
     70          1           0        4.001043    4.480675    1.100138
     71          1           0        5.317869    3.370268    0.712933
     72          6           0        4.946787   -2.196187   -0.540142
     73          1           0        5.557713   -2.166826    0.363970
     74          1           0        5.394026   -2.910376   -1.240731
     75          6           0        4.773934   -0.824742   -1.194399
     76          1           0        4.529654   -0.088065   -0.423801
     77          1           0        5.647596   -0.492403   -1.759160
 ---------------------------------------------------------------------

 SCF Done:  E(RM062X) =  -1991.35543905     A.U. after   15 cycles

 The electronic state is 1-A.
 Alpha  occ. eigenvalues --  -90.14615 -19.62297 -19.61968 -19.58302 -19.57351
 Alpha  occ. eigenvalues --  -19.51104 -14.85175 -14.80086 -14.76195 -10.63178
 Alpha  occ. eigenvalues --  -10.62609 -10.62458 -10.62124 -10.61039 -10.59775
 Alpha  occ. eigenvalues --  -10.57839 -10.57766 -10.57744 -10.56982 -10.56937
 Alpha  occ. eigenvalues --  -10.56844 -10.56358 -10.55835 -10.55094 -10.55041
 Alpha  occ. eigenvalues --  -10.55017 -10.54870 -10.54739 -10.54655 -10.54652
 Alpha  occ. eigenvalues --  -10.54391 -10.54120 -10.53108 -10.51131 -10.51033
 Alpha  occ. eigenvalues --  -10.49706  -8.45592  -6.37818  -6.37766  -6.37645
 Alpha  occ. eigenvalues --   -1.22419  -1.13440  -1.12787  -1.10617  -1.08919
 Alpha  occ. eigenvalues --   -1.05983  -1.02258  -1.00596  -0.95799  -0.95176
 Alpha  occ. eigenvalues --   -0.93472  -0.90115  -0.88584  -0.86465  -0.85452
 Alpha  occ. eigenvalues --   -0.84835  -0.84824  -0.83783  -0.83293  -0.82995
 Alpha  occ. eigenvalues --   -0.76570  -0.76093  -0.75571  -0.74050  -0.73186
 Alpha  occ. eigenvalues --   -0.71730  -0.68219  -0.68110  -0.67764  -0.67468
 Alpha  occ. eigenvalues --   -0.66400  -0.65456  -0.64866  -0.63333  -0.60510
 Alpha  occ. eigenvalues --   -0.60354  -0.59938  -0.59373  -0.57944  -0.57677
 Alpha  occ. eigenvalues --   -0.57168  -0.56361  -0.55607  -0.55008  -0.54355
 Alpha  occ. eigenvalues --   -0.53534  -0.53006  -0.52622  -0.52390  -0.52106
 Alpha  occ. eigenvalues --   -0.51642  -0.50862  -0.50145  -0.49955  -0.49408
 Alpha  occ. eigenvalues --   -0.49220  -0.48891  -0.48512  -0.48192  -0.48045
 Alpha  occ. eigenvalues --   -0.47698  -0.47629  -0.47132  -0.46294  -0.45878
 Alpha  occ. eigenvalues --   -0.45368  -0.45175  -0.44385  -0.44133  -0.43183
 Alpha  occ. eigenvalues --   -0.42467  -0.42325  -0.41217  -0.40930  -0.40764
 Alpha  occ. eigenvalues --   -0.40621  -0.40413  -0.40157  -0.39878  -0.39447
 Alpha  occ. eigenvalues --   -0.39060  -0.38982  -0.38717  -0.38254  -0.37702
 Alpha  occ. eigenvalues --   -0.37483  -0.36552  -0.36432  -0.35983  -0.35035
 Alpha  occ. eigenvalues --   -0.34600  -0.34301  -0.31986  -0.31169  -0.29976
 Alpha  occ. eigenvalues --   -0.29190  -0.28763  -0.27813  -0.24648  -0.24232
 Alpha virt. eigenvalues --   -0.01246   0.00573   0.03233   0.03641   0.10190
 Alpha virt. eigenvalues --    0.10616   0.11384   0.12538   0.13177   0.13329
 Alpha virt. eigenvalues --    0.14179   0.14395   0.15089   0.15530   0.15543

 Mulliken charges:
               1
     1  C   -0.306630
     2  C   -0.307774
     3  C   -0.311622
     4  C   -0.060985
     5  C    0.066001
     6  C   -0.306874
     7  H    0.175198
     8  H    0.163200
     9  H    0.166649
    10  H    0.152033
    11  H    0.164697
    12  H    0.207985
    13  H    0.173923
    14  H    0.191611
    15  H    0.160140
    16  H    0.156743
    17  N   -0.437061
    18  C    0.081750
    19  C    0.082428
    20  C   -0.212104
    21  H    0.202958
    22  C   -0.222211
    23  H    0.244507
    24  C    0.448454
    25  H    0.192117
    26  H    0.209639
    27  N   -0.518892
    28  C   -0.163467
    29  H    0.167713
    30  H    0.219071
    31  C   -0.145233
    32  H    0.160824
    33  H    0.205403
    34  N   -0.814401
    35  S    1.237135
    36  O   -0.604816
    37  O   -0.592706
    38  C    0.049520
    39  C   -0.198191
    40  C   -0.192799
    41  C   -0.172671
    42  C   -0.165001
    43  C   -0.205479
    44  H    0.235525
    45  H    0.140780
    46  H    0.156136
    47  H    0.159796
    48  H    0.154442
    49  O   -0.610591
    50  H    0.452565
    51  C    0.712513
    52  O   -0.677418
    53  O   -0.698118
    54  H    0.433982
    55  C   -0.339021
    56  H    0.145614
    57  H    0.150981
    58  C   -0.076305
    59  H    0.128117
    60  H    0.154830
    61  C   -0.666574
    62  H    0.265352
    63  H    0.200299
    64  H    0.223175
    65  C   -0.285430
    66  H    0.143394
    67  H    0.141420
    68  C   -0.475353
    69  H    0.148706
    70  H    0.149166
    71  H    0.148840
    72  C   -0.334440
    73  H    0.184219
    74  H    0.160522
    75  C   -0.338564
    76  H    0.205657
    77  H    0.165002
 Sum of Mulliken charges =  -0.00000

 Dipole moment (field-independent basis, Debye):
    X=             -3.3745    Y=             -1.4725    Z=             -5.7500  Tot=              6.8277
 Quadrupole moment (field-independent basis, Debye-Ang):
   XX=           -207.9234   YY=           -223.0440   ZZ=           -218.0531
   XY=            -13.6467   XZ=             -4.3623   YZ=             10.7859

 Normal termination of Gaussian 16 at Thu Feb  7 09:00:03 2019.
