 Gaussian 16, Revision A.03,
 Gaussian 16:  ES64L-G16RevA.03 25-Dec-2016

 ------------------------------------------
 #p M062X/6-31G* em=gd3 force int=ultrafine
 ------------------------------------------

 -----
 Title
 -----
 Symbolic Z-matrix:
 Charge =  0 Multiplicity = 1

                         Standard orientation:
 ---------------------------------------------------------------------
 Center     Atomic      Atomic             Coordinates (Angstroms)
 Number     Number       Type             X           Y           Z
 ---------------------------------------------------------------------
      1          6           0       -4.862344    0.492253   -0.553034
      2          6           0       -5.038567   -0.815790   -1.330045
      3          6           0       -3.701412   -1.289216   -1.912378
      4          6           0       -2.702550   -1.476371   -0.775035
      5          6           0       -2.494167   -0.148745   -0.006639
      6          6           0       -3.825849    0.347025    0.565092
      7          1           0       -3.816597   -2.223811   -2.471488
      8          1           0       -5.437237   -1.590487   -0.661963
      9          1           0       -5.764786   -0.686281   -2.138552
     10          1           0       -4.533118    1.279515   -1.244787
     11          1           0       -5.821336    0.812772   -0.133444
     12          1           0       -3.085520   -2.227387   -0.076483
     13          1           0       -2.157112    0.594138   -0.740960
     14          1           0       -4.184741   -0.354940    1.325172
     15          1           0       -3.647023    1.312734    1.050818
     16          1           0       -3.341110   -0.521767   -2.610573
     17          7           0       -1.374938   -1.962958   -1.204720
     18          6           0       -0.691098   -1.321112   -2.189926
     19          6           0       -0.680349   -2.751190   -0.341820
     20          6           0        0.660025   -1.415275   -2.318286
     21          1           0       -1.280810   -0.700647   -2.852697
     22          6           0        0.672510   -2.880944   -0.395911
     23          1           0       -1.265891   -3.225375    0.438188
     24          6           0        1.419867   -2.121665   -1.337872
     25          1           0        1.147542   -0.876660   -3.119863
     26          1           0        1.157828   -3.472644    0.367184
     27          7           0        2.746312   -2.082056   -1.305588
     28          6           0        3.484719   -2.564897   -0.127750
     29          1           0        3.343558   -3.641656    0.002159
     30          1           0        3.115017   -2.016668    0.750648
     31          6           0        3.509647   -1.047736   -2.023551
     32          1           0        3.765235   -1.403302   -3.029607
     33          1           0        2.910364   -0.135788   -2.075849
     34          7           0       -1.398528   -0.221257    0.945572
     35         16           0       -1.405426   -1.064054    2.346309
     36          8           0       -2.642529   -1.847480    2.372491
     37          8           0       -0.134066   -1.774564    2.484528
     38          6           0       -0.524859    2.650730   -0.087566
     39          6           0       -0.048369    2.064021   -1.268888
     40          6           0       -0.799038    2.132478   -2.442370
     41          6           0       -2.038092    2.772231   -2.464040
     42          6           0       -2.522638    3.352226   -1.293433
     43          6           0       -1.768004    3.290557   -0.122072
     44          1           0        0.887575    1.510657   -1.224601
     45          1           0       -0.405614    1.686188   -3.353753
     46          1           0       -2.615880    2.825691   -3.382674
     47          1           0       -3.485357    3.856067   -1.292278
     48          1           0       -2.153957    3.750894    0.785408
     49          8           0        0.729613    1.436886    1.718617
     50          1           0       -0.463901    0.132093    0.692210
     51          6           0        2.005180    0.777446    1.179783
     52          8           0        1.764260    0.188896    0.046410
     53          8           0        2.294948   -0.104914    2.249891
     54          1           0        1.588499   -0.774897    2.217541
     55          6           0        3.138522    1.828826    1.209815
     56          1           0        2.966516    2.528161    2.038278
     57          1           0        4.055655    1.283401    1.466925
     58          6           0        0.277053    2.662240    1.214923
     59          1           0       -0.380291    3.086013    1.987937
     60          1           0        1.109901    3.372403    1.106328
     61          6           0       -1.437709    0.168901    3.625927
     62          1           0       -0.547760    0.785421    3.467133
     63          1           0       -2.356949    0.747511    3.522735
     64          1           0       -1.405217   -0.348435    4.586308
     65          6           0        3.366638    2.583351   -0.097825
     66          1           0        3.613661    1.862504   -0.886025
     67          1           0        2.447502    3.075769   -0.435925
     68          6           0        4.477884    3.623032    0.035544
     69          1           0        4.664290    4.145130   -0.908117
     70          1           0        4.217888    4.375562    0.788587
     71          1           0        5.416044    3.154647    0.353924
     72          6           0        4.925813   -2.183290   -0.444238
     73          1           0        5.535639   -2.117248    0.458591
     74          1           0        5.376977   -2.920056   -1.118471
     75          6           0        4.745713   -0.836973   -1.146650
     76          1           0        4.501085   -0.076254   -0.399931
     77          1           0        5.617354   -0.517487   -1.721849
 ---------------------------------------------------------------------

 SCF Done:  E(RM062X) =  -1991.35613707     A.U. after   15 cycles

 The electronic state is 1-A.
 Alpha  occ. eigenvalues --  -90.14793 -19.62367 -19.62195 -19.58534 -19.56696
 Alpha  occ. eigenvalues --  -19.50456 -14.85271 -14.80152 -14.76798 -10.63250
 Alpha  occ. eigenvalues --  -10.62704 -10.62207 -10.61963 -10.61084 -10.59867
 Alpha  occ. eigenvalues --  -10.57917 -10.57851 -10.57689 -10.57078 -10.56961
 Alpha  occ. eigenvalues --  -10.56910 -10.56180 -10.55885 -10.55087 -10.55014
 Alpha  occ. eigenvalues --  -10.54926 -10.54765 -10.54748 -10.54674 -10.54558
 Alpha  occ. eigenvalues --  -10.54422 -10.54235 -10.53000 -10.51110 -10.51016
 Alpha  occ. eigenvalues --  -10.49414  -8.45762  -6.37989  -6.37946  -6.37800
 Alpha  occ. eigenvalues --   -1.22575  -1.13570  -1.12979  -1.10807  -1.09015
 Alpha  occ. eigenvalues --   -1.05734  -1.02501  -0.99330  -0.95890  -0.95116
 Alpha  occ. eigenvalues --   -0.93540  -0.90229  -0.88655  -0.86474  -0.85322
 Alpha  occ. eigenvalues --   -0.84908  -0.84856  -0.83830  -0.83185  -0.83081
 Alpha  occ. eigenvalues --   -0.76648  -0.75914  -0.75653  -0.74250  -0.73256
 Alpha  occ. eigenvalues --   -0.71807  -0.68229  -0.68168  -0.67806  -0.67521
 Alpha  occ. eigenvalues --   -0.66490  -0.65483  -0.64806  -0.63437  -0.60492
 Alpha  occ. eigenvalues --   -0.60316  -0.59913  -0.59522  -0.57856  -0.57685
 Alpha  occ. eigenvalues --   -0.57255  -0.56480  -0.55790  -0.55127  -0.54342
 Alpha  occ. eigenvalues --   -0.53606  -0.53050  -0.52690  -0.52472  -0.52068
 Alpha  occ. eigenvalues --   -0.51691  -0.50832  -0.50251  -0.49921  -0.49341
 Alpha  occ. eigenvalues --   -0.49184  -0.48997  -0.48376  -0.48132  -0.47931
 Alpha  occ. eigenvalues --   -0.47739  -0.47610  -0.47160  -0.46168  -0.45870
 Alpha  occ. eigenvalues --   -0.45161  -0.44953  -0.44339  -0.43850  -0.43255
 Alpha  occ. eigenvalues --   -0.42552  -0.42262  -0.41129  -0.41006  -0.40874
 Alpha  occ. eigenvalues --   -0.40681  -0.40486  -0.39993  -0.39845  -0.39353
 Alpha  occ. eigenvalues --   -0.39210  -0.38963  -0.38490  -0.38343  -0.37865
 Alpha  occ. eigenvalues --   -0.37298  -0.36535  -0.36403  -0.36081  -0.34983
 Alpha  occ. eigenvalues --   -0.34454  -0.34225  -0.31853  -0.31269  -0.29913
 Alpha  occ. eigenvalues --   -0.29038  -0.28735  -0.27753  -0.24024  -0.23878
 Alpha virt. eigenvalues --   -0.01329   0.00471   0.03322   0.03632   0.10127
 Alpha virt. eigenvalues --    0.10610   0.11348   0.12513   0.13178   0.13247
 Alpha virt. eigenvalues --    0.14105   0.14398   0.14858   0.15438   0.15557

 Mulliken charges:
               1
     1  C   -0.306409
     2  C   -0.307767
     3  C   -0.310640
     4  C   -0.058867
     5  C    0.059222
     6  C   -0.308286
     7  H    0.175474
     8  H    0.163179
     9  H    0.166847
    10  H    0.151043
    11  H    0.165072
    12  H    0.206780
    13  H    0.175797
    14  H    0.194237
    15  H    0.162808
    16  H    0.156150
    17  N   -0.437022
    18  C    0.074588
    19  C    0.072614
    20  C   -0.206022
    21  H    0.204198
    22  C   -0.215988
    23  H    0.243147
    24  C    0.449527
    25  H    0.192413
    26  H    0.210408
    27  N   -0.520236
    28  C   -0.167699
    29  H    0.167334
    30  H    0.224399
    31  C   -0.148072
    32  H    0.161276
    33  H    0.205958
    34  N   -0.800031
    35  S    1.243407
    36  O   -0.603680
    37  O   -0.593505
    38  C    0.059618
    39  C   -0.195776
    40  C   -0.191685
    41  C   -0.172505
    42  C   -0.165398
    43  C   -0.206675
    44  H    0.228910
    45  H    0.141071
    46  H    0.155589
    47  H    0.159106
    48  H    0.153071
    49  O   -0.577615
    50  H    0.440054
    51  C    0.718722
    52  O   -0.708120
    53  O   -0.709206
    54  H    0.433119
    55  C   -0.340052
    56  H    0.143923
    57  H    0.149980
    58  C   -0.083449
    59  H    0.133834
    60  H    0.153431
    61  C   -0.664839
    62  H    0.273459
    63  H    0.199600
    64  H    0.221298
    65  C   -0.286059
    66  H    0.138941
    67  H    0.141324
    68  C   -0.474210
    69  H    0.147791
    70  H    0.150391
    71  H    0.147670
    72  C   -0.333602
    73  H    0.185435
    74  H    0.160424
    75  C   -0.339699
    76  H    0.203692
    77  H    0.166783
 Sum of Mulliken charges =  -0.00000

 Dipole moment (field-independent basis, Debye):
    X=             -3.5316    Y=             -1.9579    Z=             -5.8452  Tot=              7.1044
 Quadrupole moment (field-independent basis, Debye-Ang):
   XX=           -208.1872   YY=           -221.7961   ZZ=           -219.0811
   XY=            -13.1621   XZ=             -4.2968   YZ=             10.5439

 Normal termination of Gaussian 16 at Thu Feb  7 11:21:18 2019.
