 Gaussian 16, Revision A.03,
 Gaussian 16:  ES64L-G16RevA.03 25-Dec-2016

 ------------------------------------------
 #p M062X/6-31G* em=gd3 force int=ultrafine
 ------------------------------------------

 -----
 Title
 -----
 Symbolic Z-matrix:
 Charge =  0 Multiplicity = 1

                         Standard orientation:
 ---------------------------------------------------------------------
 Center     Atomic      Atomic             Coordinates (Angstroms)
 Number     Number       Type             X           Y           Z
 ---------------------------------------------------------------------
      1          6           0       -4.862572    0.290292   -0.474732
      2          6           0       -4.979976   -0.993148   -1.302153
      3          6           0       -3.619975   -1.389260   -1.890684
      4          6           0       -2.621732   -1.572215   -0.751622
      5          6           0       -2.459231   -0.263121    0.071790
      6          6           0       -3.825161    0.144292    0.642693
      7          1           0       -3.697045   -2.304928   -2.487992
      8          1           0       -5.350051   -1.807812   -0.666073
      9          1           0       -5.705694   -0.864608   -2.112071
     10          1           0       -4.556845    1.113218   -1.136418
     11          1           0       -5.839046    0.560278   -0.058688
     12          1           0       -2.968397   -2.367147   -0.084004
     13          1           0       -2.191998    0.507519   -0.667602
     14          1           0       -4.152035   -0.600648    1.378622
     15          1           0       -3.692775    1.098915    1.165985
     16          1           0       -3.291918   -0.579782   -2.557286
     17          7           0       -1.268548   -1.985113   -1.196437
     18          6           0       -0.627570   -1.310380   -2.179630
     19          6           0       -0.535768   -2.746693   -0.349530
     20          6           0        0.727719   -1.362837   -2.338101
     21          1           0       -1.248374   -0.698754   -2.821532
     22          6           0        0.823425   -2.847059   -0.443189
     23          1           0       -1.088989   -3.235203    0.445534
     24          6           0        1.525539   -2.075415   -1.399776
     25          1           0        1.179571   -0.800063   -3.144458
     26          1           0        1.337399   -3.428402    0.309318
     27          7           0        2.864699   -2.004520   -1.400257
     28          6           0        3.633306   -2.495730   -0.248249
     29          1           0        3.554035   -3.583101   -0.163235
     30          1           0        3.239138   -2.034954    0.668324
     31          6           0        3.587927   -0.936369   -2.110132
     32          1           0        3.855495   -1.268457   -3.120328
     33          1           0        2.962082   -0.042167   -2.170099
     34          7           0       -1.336912   -0.302335    0.979217
     35         16           0       -1.333965   -1.197502    2.283351
     36          8           0       -2.412195   -2.209078    2.314759
     37          8           0        0.039182   -1.732142    2.490950
     38          6           0       -0.853180    2.808377   -0.108703
     39          6           0       -0.241228    2.139437   -1.176775
     40          6           0       -0.864835    2.108339   -2.422814
     41          6           0       -2.114123    2.702318   -2.609657
     42          6           0       -2.738418    3.337565   -1.539333
     43          6           0       -2.104368    3.389608   -0.300879
     44          1           0        0.699766    1.615581   -1.016807
     45          1           0       -0.374745    1.613992   -3.259142
     46          1           0       -2.599205    2.670473   -3.580699
     47          1           0       -3.716558    3.792356   -1.662591
     48          1           0       -2.587621    3.879203    0.541092
     49          8           0        0.295630    1.656646    1.691021
     50          1           0       -0.300596    0.923311    1.322043
     51          6           0        2.437436    0.582837    1.163676
     52          8           0        2.094759    0.173854    0.072592
     53          8           0        2.280507   -0.108641    2.288169
     54          1           0        1.546362   -0.770057    2.183959
     55          6           0        3.165268    1.891568    1.371513
     56          1           0        2.625045    2.429805    2.157331
     57          1           0        4.162316    1.669498    1.775508
     58          6           0       -0.201849    2.882871    1.255431
     59          1           0       -0.929336    3.298713    1.970792
     60          1           0        0.646475    3.583885    1.225434
     61          6           0       -1.569093   -0.079029    3.664021
     62          1           0       -0.783774    0.676281    3.581026
     63          1           0       -2.554996    0.381889    3.577473
     64          1           0       -1.478787   -0.636713    4.596995
     65          6           0        3.271921    2.727234    0.098882
     66          1           0        3.668911    2.108250   -0.714400
     67          1           0        2.269291    3.030437   -0.224398
     68          6           0        4.150707    3.960066    0.293483
     69          1           0        4.255345    4.527411   -0.635887
     70          1           0        3.729939    4.630834    1.050035
     71          1           0        5.154238    3.674048    0.626775
     72          6           0        5.054639   -2.023684   -0.539995
     73          1           0        5.648763   -1.933641    0.371683
     74          1           0        5.555709   -2.727760   -1.211959
     75          6           0        4.824484   -0.683516   -1.241788
     76          1           0        4.582825    0.082478   -0.499940
     77          1           0        5.682040   -0.343573   -1.826000
 ---------------------------------------------------------------------

 SCF Done:  E(RM062X) =  -1991.38265991     A.U. after   15 cycles

 The electronic state is 1-A.
 Alpha  occ. eigenvalues --  -90.10228 -19.63580 -19.60258 -19.58704 -19.58302
 Alpha  occ. eigenvalues --  -19.58287 -14.84805 -14.80430 -14.69279 -10.65803
 Alpha  occ. eigenvalues --  -10.63223 -10.62444 -10.61616 -10.59252 -10.59080
 Alpha  occ. eigenvalues --  -10.58900 -10.57838 -10.57342 -10.56777 -10.56722
 Alpha  occ. eigenvalues --  -10.55940 -10.55700 -10.55631 -10.55093 -10.55023
 Alpha  occ. eigenvalues --  -10.54938 -10.54657 -10.54614 -10.54519 -10.53989
 Alpha  occ. eigenvalues --  -10.53601 -10.53524 -10.53487 -10.53324 -10.52907
 Alpha  occ. eigenvalues --  -10.52626  -8.41181  -6.33418  -6.33327  -6.33249
 Alpha  occ. eigenvalues --   -1.19331  -1.17686  -1.12932  -1.10140  -1.10049
 Alpha  occ. eigenvalues --   -1.09085  -1.05980  -0.97549  -0.95374  -0.94742
 Alpha  occ. eigenvalues --   -0.92194  -0.89824  -0.88566  -0.88367  -0.85104
 Alpha  occ. eigenvalues --   -0.84832  -0.83719  -0.83552  -0.83280  -0.80009
 Alpha  occ. eigenvalues --   -0.79406  -0.76318  -0.75615  -0.74654  -0.70954
 Alpha  occ. eigenvalues --   -0.70278  -0.69339  -0.68666  -0.68350  -0.68111
 Alpha  occ. eigenvalues --   -0.66004  -0.64765  -0.63912  -0.63495  -0.61606
 Alpha  occ. eigenvalues --   -0.60286  -0.59375  -0.59120  -0.58368  -0.56169
 Alpha  occ. eigenvalues --   -0.55708  -0.55319  -0.55170  -0.54462  -0.53909
 Alpha  occ. eigenvalues --   -0.53472  -0.53056  -0.52640  -0.51842  -0.51642
 Alpha  occ. eigenvalues --   -0.51068  -0.50944  -0.50628  -0.50010  -0.49833
 Alpha  occ. eigenvalues --   -0.49738  -0.49526  -0.48770  -0.48317  -0.48039
 Alpha  occ. eigenvalues --   -0.47744  -0.47245  -0.47090  -0.46997  -0.45805
 Alpha  occ. eigenvalues --   -0.45529  -0.45169  -0.43972  -0.43729  -0.43487
 Alpha  occ. eigenvalues --   -0.43014  -0.42836  -0.42153  -0.42035  -0.41822
 Alpha  occ. eigenvalues --   -0.41228  -0.40934  -0.40519  -0.39901  -0.39656
 Alpha  occ. eigenvalues --   -0.39403  -0.39361  -0.39108  -0.38402  -0.38097
 Alpha  occ. eigenvalues --   -0.37405  -0.36291  -0.35830  -0.35327  -0.35182
 Alpha  occ. eigenvalues --   -0.34237  -0.32971  -0.31973  -0.31695  -0.31249
 Alpha  occ. eigenvalues --   -0.29974  -0.28792  -0.28344  -0.27305  -0.25347
 Alpha virt. eigenvalues --   -0.01080   0.00675   0.03105   0.03677   0.08834
 Alpha virt. eigenvalues --    0.10152   0.10967   0.11778   0.12962   0.13499
 Alpha virt. eigenvalues --    0.13765   0.14312   0.14991   0.15449   0.15864

 Mulliken charges:
               1
     1  C   -0.303887
     2  C   -0.304394
     3  C   -0.309887
     4  C   -0.071301
     5  C    0.068803
     6  C   -0.304774
     7  H    0.167100
     8  H    0.161483
     9  H    0.159311
    10  H    0.144821
    11  H    0.157141
    12  H    0.208990
    13  H    0.140185
    14  H    0.181677
    15  H    0.150179
    16  H    0.149833
    17  N   -0.424291
    18  C    0.097130
    19  C    0.091800
    20  C   -0.226414
    21  H    0.204553
    22  C   -0.227490
    23  H    0.259216
    24  C    0.426188
    25  H    0.187459
    26  H    0.207953
    27  N   -0.526356
    28  C   -0.159311
    29  H    0.178179
    30  H    0.198076
    31  C   -0.145581
    32  H    0.169618
    33  H    0.193746
    34  N   -0.770227
    35  S    1.245748
    36  O   -0.637852
    37  O   -0.668055
    38  C    0.051980
    39  C   -0.176470
    40  C   -0.188777
    41  C   -0.169526
    42  C   -0.160470
    43  C   -0.199912
    44  H    0.203634
    45  H    0.139862
    46  H    0.157281
    47  H    0.162500
    48  H    0.158725
    49  O   -0.717612
    50  H    0.486074
    51  C    0.664514
    52  O   -0.518065
    53  O   -0.647881
    54  H    0.482140
    55  C   -0.374718
    56  H    0.202493
    57  H    0.167239
    58  C   -0.062863
    59  H    0.126408
    60  H    0.143516
    61  C   -0.664550
    62  H    0.231124
    63  H    0.185004
    64  H    0.205593
    65  C   -0.291213
    66  H    0.146903
    67  H    0.162207
    68  C   -0.480549
    69  H    0.159836
    70  H    0.158854
    71  H    0.152150
    72  C   -0.335934
    73  H    0.184358
    74  H    0.169584
    75  C   -0.335556
    76  H    0.180012
    77  H    0.172737
 Sum of Mulliken charges =  -0.00000

 Dipole moment (field-independent basis, Debye):
    X=              1.6619    Y=              0.1066    Z=             -6.7828  Tot=              6.9842
 Quadrupole moment (field-independent basis, Debye-Ang):
   XX=           -200.1762   YY=           -222.4661   ZZ=           -222.9488
   XY=            -11.6042   XZ=              0.8740   YZ=             13.1008

 Normal termination of Gaussian 16 at Thu Feb  7 21:47:35 2019.
