 Gaussian 16, Revision A.03,
 Gaussian 16:  ES64L-G16RevA.03 25-Dec-2016

 ------------------------------------------
 #p M062X/6-31G* em=gd3 force int=ultrafine
 ------------------------------------------

 -----
 Title
 -----
 Symbolic Z-matrix:
 Charge =  0 Multiplicity = 1

                         Standard orientation:
 ---------------------------------------------------------------------
 Center     Atomic      Atomic             Coordinates (Angstroms)
 Number     Number       Type             X           Y           Z
 ---------------------------------------------------------------------
      1          6           0       -4.783445    0.295142   -0.693888
      2          6           0       -4.906774   -1.023058   -1.463868
      3          6           0       -3.545946   -1.457772   -2.021236
      4          6           0       -2.566571   -1.603370   -0.862273
      5          6           0       -2.397915   -0.259024   -0.106924
      6          6           0       -3.756785    0.195864    0.438656
      7          1           0       -3.622640   -2.400268   -2.574060
      8          1           0       -5.290238   -1.806048   -0.796613
      9          1           0       -5.624436   -0.921798   -2.284056
     10          1           0       -4.475729    1.088018   -1.388116
     11          1           0       -5.757879    0.584435   -0.286903
     12          1           0       -2.947309   -2.350946   -0.159392
     13          1           0       -2.075288    0.484053   -0.847787
     14          1           0       -4.105156   -0.513875    1.196142
     15          1           0       -3.622646    1.170600    0.919152
     16          1           0       -3.198577   -0.684799   -2.719988
     17          7           0       -1.218093   -2.064913   -1.251773
     18          6           0       -0.532480   -1.427792   -2.236937
     19          6           0       -0.519240   -2.788771   -0.336097
     20          6           0        0.825751   -1.458840   -2.313368
     21          1           0       -1.127790   -0.865739   -2.945740
     22          6           0        0.839681   -2.840813   -0.328506
     23          1           0       -1.111719   -3.267963    0.435693
     24          6           0        1.577457   -2.069302   -1.265513
     25          1           0        1.315087   -0.932818   -3.121608
     26          1           0        1.325961   -3.371518    0.477798
     27          7           0        2.895951   -1.932170   -1.173803
     28          6           0        3.620118   -2.277959    0.059655
     29          1           0        3.520641   -3.344796    0.278301
     30          1           0        3.201556   -1.679229    0.882715
     31          6           0        3.618068   -0.919942   -1.953647
     32          1           0        3.868296   -1.317943   -2.944766
     33          1           0        2.983011   -0.036184   -2.063296
     34          7           0       -1.311414   -0.293141    0.859181
     35         16           0       -1.398984   -1.095993    2.273411
     36          8           0       -2.581537   -1.963062    2.249138
     37          8           0       -0.103187   -1.728752    2.537276
     38          6           0       -0.656747    2.707753    0.025369
     39          6           0       -0.184750    2.247387   -1.213875
     40          6           0       -0.986865    2.316572   -2.350803
     41          6           0       -2.279641    2.837591   -2.282067
     42          6           0       -2.763839    3.288309   -1.057440
     43          6           0       -1.953799    3.224897    0.076957
     44          1           0        0.792518    1.783227   -1.258281
     45          1           0       -0.594417    1.966030   -3.302718
     46          1           0       -2.900082    2.895157   -3.172274
     47          1           0       -3.769586    3.694526   -0.982006
     48          1           0       -2.339198    3.591937    1.026799
     49          8           0        0.666603    1.609370    1.892783
     50          1           0       -0.315265   -0.050831    0.558176
     51          6           0        1.782796    0.859336    1.249093
     52          8           0        1.355860    0.242290    0.165018
     53          8           0        2.175834   -0.012753    2.293753
     54          1           0        1.462490   -0.672793    2.360138
     55          6           0        3.003366    1.806253    1.090514
     56          1           0        2.988114    2.538702    1.908116
     57          1           0        3.884437    1.179405    1.276439
     58          6           0        0.206152    2.786845    1.287697
     59          1           0       -0.403258    3.284956    2.053115
     60          1           0        1.047702    3.465002    1.082679
     61          6           0       -1.620171    0.158440    3.513561
     62          1           0       -0.760794    0.828170    3.420512
     63          1           0       -2.557731    0.677967    3.307988
     64          1           0       -1.652222   -0.334989    4.486317
     65          6           0        3.182183    2.505847   -0.253834
     66          1           0        3.097351    1.760902   -1.053261
     67          1           0        2.380081    3.228243   -0.440937
     68          6           0        4.528222    3.223320   -0.345777
     69          1           0        4.658708    3.720608   -1.311911
     70          1           0        4.619190    3.983394    0.437534
     71          1           0        5.358806    2.519844   -0.213603
     72          6           0        5.055157   -1.876535   -0.265285
     73          1           0        5.640423   -1.694090    0.637883
     74          1           0        5.546591   -2.664854   -0.845788
     75          6           0        4.864195   -0.617470   -1.115321
     76          1           0        4.651662    0.231717   -0.461384
     77          1           0        5.730296   -0.372142   -1.733627
 ---------------------------------------------------------------------

 SCF Done:  E(RM062X) =  -1991.35896292     A.U. after   14 cycles

 The electronic state is 1-A.
 Alpha  occ. eigenvalues --  -90.14038 -19.61656 -19.61643 -19.58799 -19.56739
 Alpha  occ. eigenvalues --  -19.51397 -14.85115 -14.80459 -14.75434 -10.63370
 Alpha  occ. eigenvalues --  -10.62742 -10.62332 -10.62043 -10.60642 -10.59195
 Alpha  occ. eigenvalues --  -10.58754 -10.57895 -10.57876 -10.57041 -10.56857
 Alpha  occ. eigenvalues --  -10.56652 -10.55596 -10.55581 -10.55213 -10.55077
 Alpha  occ. eigenvalues --  -10.54741 -10.54705 -10.54627 -10.54462 -10.54303
 Alpha  occ. eigenvalues --  -10.54227 -10.54167 -10.53091 -10.51693 -10.51590
 Alpha  occ. eigenvalues --  -10.49813  -8.45017  -6.37232  -6.37212  -6.37055
 Alpha  occ. eigenvalues --   -1.21870  -1.13681  -1.13451  -1.10116  -1.09361
 Alpha  occ. eigenvalues --   -1.05917  -1.01568  -0.99432  -0.95668  -0.94904
 Alpha  occ. eigenvalues --   -0.93452  -0.90219  -0.88757  -0.85927  -0.85806
 Alpha  occ. eigenvalues --   -0.84764  -0.84629  -0.84348  -0.82988  -0.82591
 Alpha  occ. eigenvalues --   -0.76635  -0.76378  -0.75829  -0.74386  -0.72692
 Alpha  occ. eigenvalues --   -0.71549  -0.68350  -0.68297  -0.67893  -0.67136
 Alpha  occ. eigenvalues --   -0.66754  -0.65175  -0.64861  -0.63520  -0.60577
 Alpha  occ. eigenvalues --   -0.60406  -0.59797  -0.58809  -0.57852  -0.57534
 Alpha  occ. eigenvalues --   -0.57117  -0.56415  -0.55678  -0.55157  -0.54165
 Alpha  occ. eigenvalues --   -0.53431  -0.52620  -0.52381  -0.52338  -0.51847
 Alpha  occ. eigenvalues --   -0.51513  -0.51098  -0.50953  -0.49837  -0.49591
 Alpha  occ. eigenvalues --   -0.49162  -0.48799  -0.48211  -0.48106  -0.48058
 Alpha  occ. eigenvalues --   -0.47609  -0.47416  -0.46888  -0.46471  -0.46086
 Alpha  occ. eigenvalues --   -0.44934  -0.44645  -0.44062  -0.43873  -0.43244
 Alpha  occ. eigenvalues --   -0.42426  -0.42069  -0.41588  -0.41441  -0.41209
 Alpha  occ. eigenvalues --   -0.40873  -0.40433  -0.40023  -0.39861  -0.39538
 Alpha  occ. eigenvalues --   -0.39235  -0.39035  -0.38425  -0.37862  -0.37576
 Alpha  occ. eigenvalues --   -0.37340  -0.36732  -0.36563  -0.35667  -0.34866
 Alpha  occ. eigenvalues --   -0.34333  -0.33866  -0.31772  -0.30947  -0.29686
 Alpha  occ. eigenvalues --   -0.28878  -0.28521  -0.27547  -0.24999  -0.24533
 Alpha virt. eigenvalues --   -0.01380   0.00518   0.03644   0.03867   0.10230
 Alpha virt. eigenvalues --    0.11067   0.11536   0.12070   0.13212   0.13537
 Alpha virt. eigenvalues --    0.14228   0.14680   0.14834   0.15389   0.15601

 Mulliken charges:
               1
     1  C   -0.306047
     2  C   -0.306857
     3  C   -0.310446
     4  C   -0.058875
     5  C    0.056795
     6  C   -0.311661
     7  H    0.173727
     8  H    0.162909
     9  H    0.165022
    10  H    0.150344
    11  H    0.162853
    12  H    0.208341
    13  H    0.172300
    14  H    0.193865
    15  H    0.163226
    16  H    0.153579
    17  N   -0.433063
    18  C    0.070628
    19  C    0.065157
    20  C   -0.206014
    21  H    0.207107
    22  C   -0.209490
    23  H    0.245879
    24  C    0.452282
    25  H    0.190656
    26  H    0.211751
    27  N   -0.530126
    28  C   -0.177126
    29  H    0.169988
    30  H    0.238315
    31  C   -0.154111
    32  H    0.168715
    33  H    0.200173
    34  N   -0.817382
    35  S    1.254072
    36  O   -0.611474
    37  O   -0.609799
    38  C    0.092350
    39  C   -0.176731
    40  C   -0.188594
    41  C   -0.170461
    42  C   -0.163601
    43  C   -0.211980
    44  H    0.201843
    45  H    0.141585
    46  H    0.154406
    47  H    0.158004
    48  H    0.151828
    49  O   -0.547625
    50  H    0.449887
    51  C    0.728582
    52  O   -0.724570
    53  O   -0.718134
    54  H    0.445908
    55  C   -0.337198
    56  H    0.150386
    57  H    0.147526
    58  C   -0.095512
    59  H    0.141424
    60  H    0.146491
    61  C   -0.662547
    62  H    0.270178
    63  H    0.196304
    64  H    0.217310
    65  C   -0.295897
    66  H    0.141945
    67  H    0.147159
    68  C   -0.476464
    69  H    0.149636
    70  H    0.156451
    71  H    0.144054
    72  C   -0.331896
    73  H    0.187512
    74  H    0.163896
    75  C   -0.344604
    76  H    0.193811
    77  H    0.172132
 Sum of Mulliken charges =  -0.00000

 Dipole moment (field-independent basis, Debye):
    X=             -1.9881    Y=             -1.9914    Z=             -6.4960  Tot=              7.0793
 Quadrupole moment (field-independent basis, Debye-Ang):
   XX=           -204.4729   YY=           -223.1439   ZZ=           -220.0245
   XY=            -12.0931   XZ=             -5.1044   YZ=             10.2986

 Normal termination of Gaussian 16 at Thu Feb  7 17:35:21 2019.
