 Gaussian 16, Revision A.03,
 Gaussian 16:  ES64L-G16RevA.03 25-Dec-2016

 ------------------------------------------
 #p M062X/6-31G* em=gd3 force int=ultrafine
 ------------------------------------------

 -----
 Title
 -----
 Symbolic Z-matrix:
 Charge =  0 Multiplicity = 1

                         Standard orientation:
 ---------------------------------------------------------------------
 Center     Atomic      Atomic             Coordinates (Angstroms)
 Number     Number       Type             X           Y           Z
 ---------------------------------------------------------------------
      1          6           0       -4.801465    0.460951   -0.517768
      2          6           0       -5.007682   -0.845599   -1.290085
      3          6           0       -3.690239   -1.327101   -1.910040
      4          6           0       -2.666638   -1.518179   -0.796777
      5          6           0       -2.418662   -0.189838   -0.037605
      6          6           0       -3.732279    0.314208    0.569842
      7          1           0       -3.826870   -2.262604   -2.462904
      8          1           0       -5.391026   -1.618940   -0.611510
      9          1           0       -5.756505   -0.711135   -2.076936
     10          1           0       -4.492471    1.246645   -1.219818
     11          1           0       -5.746072    0.784279   -0.068463
     12          1           0       -3.040627   -2.261035   -0.085477
     13          1           0       -2.099896    0.548948   -0.784011
     14          1           0       -4.074796   -0.385082    1.339729
     15          1           0       -3.537686    1.280399    1.047720
     16          1           0       -3.344076   -0.564048   -2.620211
     17          7           0       -1.351233   -2.016827   -1.249763
     18          6           0       -0.670355   -1.349646   -2.219919
     19          6           0       -0.651905   -2.805530   -0.390892
     20          6           0        0.683914   -1.412567   -2.331086
     21          1           0       -1.265843   -0.730816   -2.879765
     22          6           0        0.704137   -2.906576   -0.429003
     23          1           0       -1.236981   -3.295543    0.379874
     24          6           0        1.443292   -2.108640   -1.343177
     25          1           0        1.170750   -0.852961   -3.118395
     26          1           0        1.193241   -3.494233    0.334761
     27          7           0        2.766543   -2.018049   -1.280496
     28          6           0        3.507014   -2.483986   -0.098298
     29          1           0        3.381590   -3.561915    0.035952
     30          1           0        3.126153   -1.939558    0.778276
     31          6           0        3.497237   -0.950371   -1.979331
     32          1           0        3.736311   -1.266975   -3.002065
     33          1           0        2.874261   -0.052016   -1.995092
     34          7           0       -1.294769   -0.274132    0.882694
     35         16           0       -1.332182   -1.103221    2.288852
     36          8           0       -2.553210   -1.914213    2.305002
     37          8           0       -0.052226   -1.793754    2.462602
     38          6           0       -0.562920    2.666676   -0.030376
     39          6           0       -0.090090    2.143018   -1.244047
     40          6           0       -0.865247    2.217523   -2.400050
     41          6           0       -2.129441    2.806679   -2.378060
     42          6           0       -2.611818    3.326224   -1.179770
     43          6           0       -1.830892    3.256001   -0.025789
     44          1           0        0.863266    1.625581   -1.247411
     45          1           0       -0.471117    1.816981   -3.331982
     46          1           0       -2.726992    2.866950   -3.283521
     47          1           0       -3.593127    3.791256   -1.141623
     48          1           0       -2.216493    3.674086    0.902072
     49          8           0        0.730753    1.540667    1.841778
     50          1           0       -0.322891   -0.039608    0.559518
     51          6           0        1.892150    0.813655    1.227964
     52          8           0        1.514763    0.200590    0.128754
     53          8           0        2.256209   -0.062331    2.279704
     54          1           0        1.560898   -0.744827    2.289884
     55          6           0        3.083362    1.800415    1.131724
     56          1           0        3.008214    2.517485    1.960046
     57          1           0        3.986075    1.211004    1.336770
     58          6           0        0.264535    2.725102    1.258420
     59          1           0       -0.378372    3.188417    2.018625
     60          1           0        1.095308    3.428840    1.098599
     61          6           0       -1.430495    0.130104    3.564947
     62          1           0       -0.546606    0.762458    3.443071
     63          1           0       -2.352376    0.696207    3.420694
     64          1           0       -1.436240   -0.387733    4.525509
     65          6           0        3.270223    2.538065   -0.191376
     66          1           0        3.423005    1.808878   -0.995579
     67          1           0        2.368610    3.093255   -0.469913
     68          6           0        4.453073    3.503288   -0.129027
     69          1           0        4.611834    4.017759   -1.081759
     70          1           0        4.288213    4.265924    0.640471
     71          1           0        5.377708    2.974364    0.129378
     72          6           0        4.942833   -2.086562   -0.420263
     73          1           0        5.557255   -2.014051    0.478841
     74          1           0        5.396524   -2.819775   -1.096382
     75          6           0        4.750523   -0.741904   -1.124388
     76          1           0        4.533801    0.024725   -0.375789
     77          1           0        5.611870   -0.427128   -1.717214
 ---------------------------------------------------------------------

 SCF Done:  E(RM062X) =  -1991.35790240     A.U. after   14 cycles

 The electronic state is 1-A.
 Alpha  occ. eigenvalues --  -90.14323 -19.61912 -19.61874 -19.58601 -19.56657
 Alpha  occ. eigenvalues --  -19.51054 -14.85223 -14.80408 -14.76078 -10.63410
 Alpha  occ. eigenvalues --  -10.62788 -10.62248 -10.62138 -10.60817 -10.59481
 Alpha  occ. eigenvalues --  -10.58321 -10.57997 -10.57964 -10.57186 -10.56901
 Alpha  occ. eigenvalues --  -10.56744 -10.55713 -10.55673 -10.55069 -10.54869
 Alpha  occ. eigenvalues --  -10.54867 -10.54756 -10.54721 -10.54605 -10.54421
 Alpha  occ. eigenvalues --  -10.54400 -10.54345 -10.53033 -10.51399 -10.51359
 Alpha  occ. eigenvalues --  -10.49598  -8.45299  -6.37518  -6.37491  -6.37334
 Alpha  occ. eigenvalues --   -1.22139  -1.13611  -1.13388  -1.10392  -1.09312
 Alpha  occ. eigenvalues --   -1.05811  -1.01911  -0.99234  -0.95800  -0.95006
 Alpha  occ. eigenvalues --   -0.93532  -0.90322  -0.88762  -0.86021  -0.85669
 Alpha  occ. eigenvalues --   -0.84833  -0.84749  -0.84169  -0.83067  -0.82782
 Alpha  occ. eigenvalues --   -0.76689  -0.76178  -0.75816  -0.74309  -0.72890
 Alpha  occ. eigenvalues --   -0.71710  -0.68322  -0.68192  -0.67936  -0.67285
 Alpha  occ. eigenvalues --   -0.66708  -0.65270  -0.64858  -0.63533  -0.60526
 Alpha  occ. eigenvalues --   -0.60401  -0.59749  -0.59208  -0.57791  -0.57643
 Alpha  occ. eigenvalues --   -0.57228  -0.56459  -0.55811  -0.55158  -0.54224
 Alpha  occ. eigenvalues --   -0.53590  -0.52707  -0.52528  -0.52499  -0.51921
 Alpha  occ. eigenvalues --   -0.51566  -0.50976  -0.50614  -0.49906  -0.49482
 Alpha  occ. eigenvalues --   -0.49160  -0.48886  -0.48213  -0.48132  -0.47946
 Alpha  occ. eigenvalues --   -0.47721  -0.47500  -0.46959  -0.46382  -0.46091
 Alpha  occ. eigenvalues --   -0.44926  -0.44737  -0.44196  -0.43838  -0.43273
 Alpha  occ. eigenvalues --   -0.42563  -0.42169  -0.41342  -0.41251  -0.41051
 Alpha  occ. eigenvalues --   -0.40895  -0.40528  -0.39989  -0.39769  -0.39247
 Alpha  occ. eigenvalues --   -0.39233  -0.39095  -0.38417  -0.38051  -0.37657
 Alpha  occ. eigenvalues --   -0.37369  -0.36738  -0.36514  -0.35826  -0.34929
 Alpha  occ. eigenvalues --   -0.34401  -0.34033  -0.31688  -0.31184  -0.29788
 Alpha  occ. eigenvalues --   -0.28869  -0.28607  -0.27688  -0.24636  -0.24258
 Alpha virt. eigenvalues --   -0.01517   0.00382   0.03519   0.03728   0.10121
 Alpha virt. eigenvalues --    0.10896   0.11600   0.12277   0.13144   0.13438
 Alpha virt. eigenvalues --    0.14225   0.14471   0.14750   0.15236   0.15595

 Mulliken charges:
               1
     1  C   -0.306298
     2  C   -0.307284
     3  C   -0.309191
     4  C   -0.060144
     5  C    0.055800
     6  C   -0.310863
     7  H    0.174327
     8  H    0.163010
     9  H    0.165823
    10  H    0.150721
    11  H    0.163842
    12  H    0.208851
    13  H    0.173749
    14  H    0.194131
    15  H    0.163414
    16  H    0.154706
    17  N   -0.431495
    18  C    0.067822
    19  C    0.064990
    20  C   -0.201554
    21  H    0.206043
    22  C   -0.209960
    23  H    0.244470
    24  C    0.446285
    25  H    0.192340
    26  H    0.211356
    27  N   -0.525130
    28  C   -0.169815
    29  H    0.169531
    30  H    0.227458
    31  C   -0.154104
    32  H    0.164363
    33  H    0.207195
    34  N   -0.812493
    35  S    1.251281
    36  O   -0.609907
    37  O   -0.603947
    38  C    0.080622
    39  C   -0.187018
    40  C   -0.190283
    41  C   -0.171895
    42  C   -0.163948
    43  C   -0.211460
    44  H    0.215904
    45  H    0.140331
    46  H    0.154963
    47  H    0.158567
    48  H    0.152353
    49  O   -0.553882
    50  H    0.446567
    51  C    0.722015
    52  O   -0.719834
    53  O   -0.717332
    54  H    0.442355
    55  C   -0.338110
    56  H    0.147720
    57  H    0.151040
    58  C   -0.088944
    59  H    0.138624
    60  H    0.148323
    61  C   -0.663637
    62  H    0.275669
    63  H    0.196672
    64  H    0.218020
    65  C   -0.290721
    66  H    0.133707
    67  H    0.145634
    68  C   -0.473251
    69  H    0.148606
    70  H    0.153355
    71  H    0.146255
    72  C   -0.332197
    73  H    0.186658
    74  H    0.162581
    75  C   -0.342599
    76  H    0.198659
    77  H    0.170586
 Sum of Mulliken charges =  -0.00000

 Dipole moment (field-independent basis, Debye):
    X=             -2.7754    Y=             -2.0583    Z=             -6.2550  Tot=              7.1459
 Quadrupole moment (field-independent basis, Debye-Ang):
   XX=           -206.2911   YY=           -222.1751   ZZ=           -220.1615
   XY=            -12.6252   XZ=             -4.9986   YZ=             10.1623

 Normal termination of Gaussian 16 at Thu Feb  7 13:32:32 2019.
