 Gaussian 16, Revision A.03,
 Gaussian 16:  ES64L-G16RevA.03 25-Dec-2016

 ------------------------------------------
 #p M062X/6-31G* em=gd3 force int=ultrafine
 ------------------------------------------

 -----
 Title
 -----
 Symbolic Z-matrix:
 Charge =  0 Multiplicity = 1

                         Standard orientation:
 ---------------------------------------------------------------------
 Center     Atomic      Atomic             Coordinates (Angstroms)
 Number     Number       Type             X           Y           Z
 ---------------------------------------------------------------------
      1          6           0       -4.844509    0.386965   -0.505482
      2          6           0       -4.978644   -0.883550   -1.350172
      3          6           0       -3.622807   -1.289534   -1.940562
      4          6           0       -2.633325   -1.507533   -0.801992
      5          6           0       -2.455975   -0.222114    0.047904
      6          6           0       -3.815138    0.210428    0.614771
      7          1           0       -3.708099   -2.195609   -2.550395
      8          1           0       -5.362240   -1.702078   -0.726992
      9          1           0       -5.699781   -0.733328   -2.160152
     10          1           0       -4.527279    1.214914   -1.154956
     11          1           0       -5.817294    0.663334   -0.085442
     12          1           0       -2.997205   -2.306723   -0.148815
     13          1           0       -2.144475    0.562782   -0.658553
     14          1           0       -4.161397   -0.536467    1.338362
     15          1           0       -3.669091    1.156998    1.149315
     16          1           0       -3.279731   -0.474504   -2.592513
     17          7           0       -1.285965   -1.936942   -1.247835
     18          6           0       -0.627089   -1.250080   -2.211606
     19          6           0       -0.571502   -2.732696   -0.415617
     20          6           0        0.727919   -1.316942   -2.359223
     21          1           0       -1.233329   -0.615218   -2.844742
     22          6           0        0.786755   -2.845225   -0.495593
     23          1           0       -1.139357   -3.241797    0.355514
     24          6           0        1.507460   -2.055937   -1.425440
     25          1           0        1.194685   -0.741206   -3.147713
     26          1           0        1.286973   -3.453145    0.245229
     27          7           0        2.844699   -1.995213   -1.407788
     28          6           0        3.596120   -2.505735   -0.252682
     29          1           0        3.493711   -3.591104   -0.170953
     30          1           0        3.206988   -2.033951    0.660627
     31          6           0        3.583444   -0.919636   -2.090853
     32          1           0        3.853598   -1.235402   -3.105426
     33          1           0        2.967417   -0.017822   -2.134077
     34          7           0       -1.350981   -0.336650    0.970253
     35         16           0       -1.389343   -1.229815    2.291069
     36          8           0       -2.539639   -2.151577    2.286745
     37          8           0       -0.054377   -1.845882    2.482164
     38          6           0       -0.737598    2.771475   -0.063280
     39          6           0       -0.159469    2.129198   -1.166890
     40          6           0       -0.806529    2.155322   -2.400114
     41          6           0       -2.048344    2.778891   -2.537965
     42          6           0       -2.634498    3.393169   -1.434195
     43          6           0       -1.973810    3.391343   -0.209137
     44          1           0        0.770295    1.576788   -1.038023
     45          1           0       -0.344331    1.680178   -3.263521
     46          1           0       -2.555388    2.789283   -3.497940
     47          1           0       -3.604522    3.872300   -1.519392
     48          1           0       -2.423748    3.859780    0.662736
     49          8           0        0.265845    1.413758    1.628057
     50          1           0       -0.457034    0.654087    1.195621
     51          6           0        2.359844    0.585043    1.173291
     52          8           0        2.080566    0.155528    0.067973
     53          8           0        2.251235   -0.139796    2.289302
     54          1           0        1.532195   -0.807068    2.177757
     55          6           0        3.105141    1.881608    1.396161
     56          1           0        2.621809    2.444278    2.202644
     57          1           0        4.090971    1.584106    1.778384
     58          6           0       -0.086011    2.709536    1.299321
     59          1           0       -0.773661    3.149471    2.042856
     60          1           0        0.805357    3.366360    1.303543
     61          6           0       -1.539932   -0.078053    3.653945
     62          1           0       -0.720232    0.633719    3.519731
     63          1           0       -2.505753    0.424818    3.579069
     64          1           0       -1.450661   -0.621588    4.595597
     65          6           0        3.275331    2.729065    0.137365
     66          1           0        3.662083    2.096736   -0.670126
     67          1           0        2.302518    3.093660   -0.212113
     68          6           0        4.215712    3.909545    0.372724
     69          1           0        4.374538    4.485696   -0.543548
     70          1           0        3.813926    4.590779    1.130400
     71          1           0        5.193597    3.563788    0.725456
     72          6           0        5.025770   -2.058406   -0.537970
     73          1           0        5.625285   -2.001550    0.372635
     74          1           0        5.508238   -2.756765   -1.229633
     75          6           0        4.813928   -0.698647   -1.206202
     76          1           0        4.564472    0.045702   -0.444778
     77          1           0        5.678662   -0.346794   -1.772156
 ---------------------------------------------------------------------

 SCF Done:  E(RM062X) =  -1991.36904234     A.U. after   15 cycles

 The electronic state is 1-A.
 Alpha  occ. eigenvalues --  -90.11093 -19.63212 -19.59513 -19.59096 -19.59054
 Alpha  occ. eigenvalues --  -19.55977 -14.84949 -14.80470 -14.70356 -10.65724
 Alpha  occ. eigenvalues --  -10.63327 -10.62557 -10.61882 -10.59584 -10.58987
 Alpha  occ. eigenvalues --  -10.58833 -10.57906 -10.57253 -10.56935 -10.56209
 Alpha  occ. eigenvalues --  -10.55864 -10.55810 -10.55591 -10.54815 -10.54787
 Alpha  occ. eigenvalues --  -10.54742 -10.54647 -10.54089 -10.53944 -10.53789
 Alpha  occ. eigenvalues --  -10.53740 -10.53525 -10.53382 -10.53334 -10.52908
 Alpha  occ. eigenvalues --  -10.52785  -8.42061  -6.34294  -6.34210  -6.34130
 Alpha  occ. eigenvalues --   -1.18888  -1.18530  -1.13111  -1.09765  -1.08975
 Alpha  occ. eigenvalues --   -1.07092  -1.06862  -0.98271  -0.95027  -0.94976
 Alpha  occ. eigenvalues --   -0.92566  -0.89979  -0.88658  -0.88212  -0.84798
 Alpha  occ. eigenvalues --   -0.84524  -0.83971  -0.83769  -0.83189  -0.80515
 Alpha  occ. eigenvalues --   -0.79227  -0.76438  -0.75712  -0.73413  -0.71279
 Alpha  occ. eigenvalues --   -0.70651  -0.69185  -0.68635  -0.68369  -0.67809
 Alpha  occ. eigenvalues --   -0.65518  -0.64921  -0.64010  -0.63256  -0.62105
 Alpha  occ. eigenvalues --   -0.60383  -0.59648  -0.58613  -0.58337  -0.56346
 Alpha  occ. eigenvalues --   -0.55853  -0.55500  -0.55079  -0.54687  -0.53710
 Alpha  occ. eigenvalues --   -0.53631  -0.53169  -0.52333  -0.52106  -0.51356
 Alpha  occ. eigenvalues --   -0.51267  -0.50929  -0.50749  -0.50227  -0.49776
 Alpha  occ. eigenvalues --   -0.49645  -0.49482  -0.48708  -0.48358  -0.47738
 Alpha  occ. eigenvalues --   -0.47195  -0.47027  -0.46956  -0.46467  -0.46104
 Alpha  occ. eigenvalues --   -0.45671  -0.45354  -0.44226  -0.43676  -0.43535
 Alpha  occ. eigenvalues --   -0.43093  -0.42686  -0.42088  -0.41720  -0.41478
 Alpha  occ. eigenvalues --   -0.41315  -0.40710  -0.40410  -0.40091  -0.39565
 Alpha  occ. eigenvalues --   -0.39438  -0.39174  -0.38928  -0.38696  -0.37834
 Alpha  occ. eigenvalues --   -0.37624  -0.36598  -0.35932  -0.35485  -0.35028
 Alpha  occ. eigenvalues --   -0.34201  -0.33160  -0.32461  -0.31425  -0.29791
 Alpha  occ. eigenvalues --   -0.29678  -0.28416  -0.27436  -0.27349  -0.25851
 Alpha virt. eigenvalues --   -0.01224   0.00572   0.03418   0.04089   0.09582
 Alpha virt. eigenvalues --    0.10174   0.11069   0.11659   0.12843   0.13412
 Alpha virt. eigenvalues --    0.13802   0.14379   0.15131   0.15355   0.15777

 Mulliken charges:
               1
     1  C   -0.304674
     2  C   -0.305223
     3  C   -0.310044
     4  C   -0.067188
     5  C    0.076805
     6  C   -0.305697
     7  H    0.168108
     8  H    0.161876
     9  H    0.160658
    10  H    0.146598
    11  H    0.158647
    12  H    0.208212
    13  H    0.149036
    14  H    0.185994
    15  H    0.152949
    16  H    0.151696
    17  N   -0.426843
    18  C    0.095547
    19  C    0.097296
    20  C   -0.225004
    21  H    0.205591
    22  C   -0.228236
    23  H    0.254277
    24  C    0.427171
    25  H    0.189046
    26  H    0.208194
    27  N   -0.523536
    28  C   -0.159503
    29  H    0.177091
    30  H    0.199028
    31  C   -0.145805
    32  H    0.169163
    33  H    0.195755
    34  N   -0.810572
    35  S    1.247787
    36  O   -0.627117
    37  O   -0.652284
    38  C    0.055438
    39  C   -0.182672
    40  C   -0.189382
    41  C   -0.172313
    42  C   -0.160861
    43  C   -0.201166
    44  H    0.204778
    45  H    0.137506
    46  H    0.155203
    47  H    0.160112
    48  H    0.157217
    49  O   -0.725136
    50  H    0.490313
    51  C    0.684207
    52  O   -0.529356
    53  O   -0.647984
    54  H    0.475044
    55  C   -0.373614
    56  H    0.196181
    57  H    0.167207
    58  C   -0.049865
    59  H    0.111260
    60  H    0.125309
    61  C   -0.670186
    62  H    0.248132
    63  H    0.187779
    64  H    0.207486
    65  C   -0.292867
    66  H    0.146554
    67  H    0.165054
    68  C   -0.480157
    69  H    0.159502
    70  H    0.159005
    71  H    0.151472
    72  C   -0.334736
    73  H    0.184098
    74  H    0.168643
    75  C   -0.335331
    76  H    0.180943
    77  H    0.172382
 Sum of Mulliken charges =  -0.00000

 Dipole moment (field-independent basis, Debye):
    X=              1.3853    Y=             -0.4248    Z=             -6.5229  Tot=              6.6819
 Quadrupole moment (field-independent basis, Debye-Ang):
   XX=           -201.0456   YY=           -223.7939   ZZ=           -221.8470
   XY=            -11.2586   XZ=              0.8001   YZ=             12.7120

 Normal termination of Gaussian 16 at Thu Feb  7 20:10:00 2019.
