 Gaussian 16, Revision A.03,
 Gaussian 16:  ES64L-G16RevA.03 25-Dec-2016

 ------------------------------------------
 #p M062X/6-31G* em=gd3 force int=ultrafine
 ------------------------------------------

 -----
 Title
 -----
 Symbolic Z-matrix:
 Charge =  0 Multiplicity = 1

                         Standard orientation:
 ---------------------------------------------------------------------
 Center     Atomic      Atomic             Coordinates (Angstroms)
 Number     Number       Type             X           Y           Z
 ---------------------------------------------------------------------
      1          6           0       -4.844076    0.427932   -0.513316
      2          6           0       -4.989433   -0.844585   -1.352884
      3          6           0       -3.637164   -1.263835   -1.941892
      4          6           0       -2.646721   -1.488681   -0.803312
      5          6           0       -2.464259   -0.199154    0.037461
      6          6           0       -3.816576    0.246626    0.608550
      7          1           0       -3.729982   -2.171371   -2.548513
      8          1           0       -5.380574   -1.657598   -0.727177
      9          1           0       -5.709193   -0.690445   -2.163191
     10          1           0       -4.519249    1.251236   -1.164347
     11          1           0       -5.813713    0.714006   -0.092819
     12          1           0       -3.021186   -2.283195   -0.150047
     13          1           0       -2.134765    0.580557   -0.662538
     14          1           0       -4.170924   -0.495824    1.332623
     15          1           0       -3.661492    1.193004    1.139516
     16          1           0       -3.286296   -0.454711   -2.596585
     17          7           0       -1.305787   -1.932138   -1.247969
     18          6           0       -0.638997   -1.251949   -2.213739
     19          6           0       -0.597342   -2.734668   -0.414381
     20          6           0        0.714296   -1.328602   -2.357942
     21          1           0       -1.239709   -0.615304   -2.850330
     22          6           0        0.758518   -2.853296   -0.487887
     23          1           0       -1.171040   -3.239688    0.355120
     24          6           0        1.488748   -2.067534   -1.417572
     25          1           0        1.186978   -0.758417   -3.146688
     26          1           0        1.254033   -3.464701    0.253059
     27          7           0        2.821668   -2.017732   -1.397987
     28          6           0        3.570104   -2.531902   -0.241284
     29          1           0        3.454829   -3.615851   -0.155456
     30          1           0        3.187164   -2.043894    0.666028
     31          6           0        3.571454   -0.952106   -2.086005
     32          1           0        3.836977   -1.276210   -3.099390
     33          1           0        2.963348   -0.045335   -2.127194
     34          7           0       -1.360269   -0.323116    0.973820
     35         16           0       -1.400873   -1.221840    2.322141
     36          8           0       -2.577793   -2.099029    2.280633
     37          8           0       -0.088641   -1.865812    2.491062
     38          6           0       -0.682358    2.750972   -0.066782
     39          6           0       -0.126732    2.106562   -1.181544
     40          6           0       -0.784206    2.144940   -2.410065
     41          6           0       -2.019047    2.784233   -2.537478
     42          6           0       -2.587032    3.401301   -1.425106
     43          6           0       -1.915251    3.386403   -0.204432
     44          1           0        0.799354    1.545663   -1.060123
     45          1           0       -0.332729    1.670194   -3.279704
     46          1           0       -2.531994    2.807028   -3.494534
     47          1           0       -3.550780    3.895667   -1.504264
     48          1           0       -2.356397    3.863909    0.667720
     49          8           0        0.405977    1.421121    1.625510
     50          1           0       -0.564898    0.452641    1.077511
     51          6           0        2.245516    0.638072    1.177112
     52          8           0        2.048080    0.155658    0.060736
     53          8           0        2.229691   -0.132941    2.289904
     54          1           0        1.532438   -0.812503    2.176882
     55          6           0        3.086376    1.882710    1.387618
     56          1           0        2.670474    2.481055    2.204532
     57          1           0        4.060145    1.513698    1.740893
     58          6           0        0.006716    2.691867    1.288918
     59          1           0       -0.693407    3.107136    2.039679
     60          1           0        0.862324    3.397936    1.274079
     61          6           0       -1.532331   -0.049617    3.657321
     62          1           0       -0.696491    0.643163    3.509867
     63          1           0       -2.491739    0.463877    3.575516
     64          1           0       -1.453004   -0.590521    4.601420
     65          6           0        3.290584    2.712864    0.123422
     66          1           0        3.672003    2.061920   -0.672101
     67          1           0        2.330695    3.094394   -0.242039
     68          6           0        4.253838    3.874908    0.356098
     69          1           0        4.426560    4.445429   -0.561444
     70          1           0        3.861963    4.565429    1.110740
     71          1           0        5.223990    3.512477    0.714043
     72          6           0        5.003701   -2.102641   -0.532848
     73          1           0        5.605802   -2.050440    0.376220
     74          1           0        5.476735   -2.808062   -1.224371
     75          6           0        4.802817   -0.741423   -1.201027
     76          1           0        4.552551    0.002516   -0.439468
     77          1           0        5.670516   -0.396881   -1.767202
 ---------------------------------------------------------------------

 SCF Done:  E(RM062X) =  -1991.35801579     A.U. after   15 cycles

 The electronic state is 1-A.
 Alpha  occ. eigenvalues --  -90.13345 -19.61261 -19.61055 -19.61000 -19.56619
 Alpha  occ. eigenvalues --  -19.53788 -14.85331 -14.80534 -14.74035 -10.64399
 Alpha  occ. eigenvalues --  -10.63515 -10.62815 -10.62274 -10.60610 -10.58847
 Alpha  occ. eigenvalues --  -10.58665 -10.58571 -10.58062 -10.57240 -10.56490
 Alpha  occ. eigenvalues --  -10.55524 -10.55424 -10.55237 -10.55091 -10.54895
 Alpha  occ. eigenvalues --  -10.54526 -10.54506 -10.54459 -10.54403 -10.53961
 Alpha  occ. eigenvalues --  -10.53749 -10.53350 -10.52927 -10.52138 -10.51884
 Alpha  occ. eigenvalues --  -10.51694  -8.44348  -6.36569  -6.36511  -6.36407
 Alpha  occ. eigenvalues --   -1.21117  -1.16170  -1.13543  -1.09414  -1.09380
 Alpha  occ. eigenvalues --   -1.06519  -1.03538  -1.00416  -0.95620  -0.94487
 Alpha  occ. eigenvalues --   -0.93362  -0.90296  -0.88827  -0.86863  -0.85518
 Alpha  occ. eigenvalues --   -0.84606  -0.84424  -0.83692  -0.82769  -0.82095
 Alpha  occ. eigenvalues --   -0.77774  -0.76737  -0.75883  -0.72385  -0.71845
 Alpha  occ. eigenvalues --   -0.71429  -0.68497  -0.68422  -0.67901  -0.67233
 Alpha  occ. eigenvalues --   -0.66444  -0.64843  -0.64180  -0.63303  -0.61455
 Alpha  occ. eigenvalues --   -0.60425  -0.60141  -0.58662  -0.58222  -0.57239
 Alpha  occ. eigenvalues --   -0.56675  -0.56375  -0.55052  -0.54257  -0.53798
 Alpha  occ. eigenvalues --   -0.53311  -0.52820  -0.52335  -0.52110  -0.52008
 Alpha  occ. eigenvalues --   -0.51469  -0.51098  -0.50783  -0.50279  -0.49898
 Alpha  occ. eigenvalues --   -0.49813  -0.48674  -0.48443  -0.48283  -0.47716
 Alpha  occ. eigenvalues --   -0.47367  -0.47207  -0.47053  -0.46225  -0.46130
 Alpha  occ. eigenvalues --   -0.45701  -0.44960  -0.44654  -0.43637  -0.43246
 Alpha  occ. eigenvalues --   -0.42558  -0.42222  -0.41847  -0.41719  -0.41291
 Alpha  occ. eigenvalues --   -0.41037  -0.40570  -0.40033  -0.39827  -0.39637
 Alpha  occ. eigenvalues --   -0.39493  -0.38734  -0.38290  -0.38066  -0.37886
 Alpha  occ. eigenvalues --   -0.37651  -0.37348  -0.36740  -0.36345  -0.35273
 Alpha  occ. eigenvalues --   -0.34633  -0.33992  -0.33192  -0.29866  -0.29380
 Alpha  occ. eigenvalues --   -0.29228  -0.28574  -0.28097  -0.25770  -0.24614
 Alpha virt. eigenvalues --   -0.01495   0.00316   0.03738   0.04436   0.10207
 Alpha virt. eigenvalues --    0.11097   0.11358   0.11951   0.12717   0.13435
 Alpha virt. eigenvalues --    0.13898   0.13990   0.14902   0.15350   0.15422

 Mulliken charges:
               1
     1  C   -0.306806
     2  C   -0.306760
     3  C   -0.311561
     4  C   -0.064909
     5  C    0.070204
     6  C   -0.307164
     7  H    0.172181
     8  H    0.162294
     9  H    0.164680
    10  H    0.152306
    11  H    0.162583
    12  H    0.209196
    13  H    0.168871
    14  H    0.187833
    15  H    0.161051
    16  H    0.156399
    17  N   -0.431576
    18  C    0.090504
    19  C    0.090515
    20  C   -0.219314
    21  H    0.206666
    22  C   -0.225711
    23  H    0.250173
    24  C    0.434359
    25  H    0.192370
    26  H    0.209134
    27  N   -0.520455
    28  C   -0.161075
    29  H    0.173634
    30  H    0.206348
    31  C   -0.147003
    32  H    0.166927
    33  H    0.201150
    34  N   -0.819731
    35  S    1.244229
    36  O   -0.612827
    37  O   -0.620186
    38  C    0.057561
    39  C   -0.195421
    40  C   -0.190514
    41  C   -0.175830
    42  C   -0.162255
    43  C   -0.206453
    44  H    0.213107
    45  H    0.135075
    46  H    0.152675
    47  H    0.157004
    48  H    0.153869
    49  O   -0.689355
    50  H    0.457313
    51  C    0.676280
    52  O   -0.569602
    53  O   -0.659113
    54  H    0.461156
    55  C   -0.349493
    56  H    0.182943
    57  H    0.154809
    58  C   -0.036334
    59  H    0.096015
    60  H    0.115233
    61  C   -0.671584
    62  H    0.266762
    63  H    0.196777
    64  H    0.216195
    65  C   -0.290808
    66  H    0.141440
    67  H    0.160769
    68  C   -0.478277
    69  H    0.154427
    70  H    0.156557
    71  H    0.148696
    72  C   -0.334721
    73  H    0.184943
    74  H    0.165759
    75  C   -0.336380
    76  H    0.191905
    77  H    0.170346
 Sum of Mulliken charges =  -0.00000

 Dipole moment (field-independent basis, Debye):
    X=             -0.7989    Y=             -2.0811    Z=             -6.1527  Tot=              6.5441
 Quadrupole moment (field-independent basis, Debye-Ang):
   XX=           -201.9021   YY=           -225.5442   ZZ=           -219.7006
   XY=            -11.7689   XZ=             -2.2831   YZ=             10.5606

 Normal termination of Gaussian 16 at Thu Feb  7 19:18:55 2019.
