 Gaussian 16, Revision A.03,
 Gaussian 16:  ES64L-G16RevA.03 25-Dec-2016

 ------------------------------------------
 #p M062X/6-31G* em=gd3 force int=ultrafine
 ------------------------------------------

 -----
 Title
 -----
 Symbolic Z-matrix:
 Charge =  0 Multiplicity = 1

                         Standard orientation:
 ---------------------------------------------------------------------
 Center     Atomic      Atomic             Coordinates (Angstroms)
 Number     Number       Type             X           Y           Z
 ---------------------------------------------------------------------
      1          6           0       -4.865263    0.036608   -0.416525
      2          6           0       -4.888277   -1.240021   -1.262663
      3          6           0       -3.503704   -1.526155   -1.856292
      4          6           0       -2.498679   -1.651906   -0.716122
      5          6           0       -2.417113   -0.335842    0.107681
      6          6           0       -3.807806   -0.038724    0.688915
      7          1           0       -3.512543   -2.439434   -2.462237
      8          1           0       -5.195164   -2.089871   -0.638885
      9          1           0       -5.623170   -1.153724   -2.069740
     10          1           0       -4.635665    0.891444   -1.068126
     11          1           0       -5.855641    0.218350    0.014479
     12          1           0       -2.804091   -2.463476   -0.050535
     13          1           0       -2.210905    0.453370   -0.630300
     14          1           0       -4.068612   -0.817931    1.416384
     15          1           0       -3.748740    0.916076    1.225667
     16          1           0       -3.233891   -0.687488   -2.513060
     17          7           0       -1.128899   -1.997780   -1.161215
     18          6           0       -0.523444   -1.294897   -2.145614
     19          6           0       -0.368204   -2.757598   -0.338401
     20          6           0        0.829780   -1.312868   -2.326195
     21          1           0       -1.171505   -0.693116   -2.769699
     22          6           0        0.990926   -2.822672   -0.454123
     23          1           0       -0.899153   -3.269636    0.456888
     24          6           0        1.656887   -2.019311   -1.410075
     25          1           0        1.256352   -0.734468   -3.135079
     26          1           0        1.533088   -3.406881    0.276151
     27          7           0        2.992714   -1.918101   -1.433280
     28          6           0        3.800481   -2.435719   -0.322370
     29          1           0        3.747342   -3.527706   -0.280318
     30          1           0        3.417772   -2.021980    0.621229
     31          6           0        3.679085   -0.825242   -2.138395
     32          1           0        3.932188   -1.134424   -3.160047
     33          1           0        3.033546    0.056376   -2.169039
     34          7           0       -1.295305   -0.291553    1.023854
     35         16           0       -1.255191   -1.249232    2.278535
     36          8           0       -2.236862   -2.355495    2.229571
     37          8           0        0.145996   -1.690303    2.519715
     38          6           0       -1.200538    2.842778   -0.175711
     39          6           0       -0.432661    2.202036   -1.153265
     40          6           0       -0.921403    2.081319   -2.452816
     41          6           0       -2.187673    2.562644   -2.784708
     42          6           0       -2.962747    3.183343   -1.806579
     43          6           0       -2.466005    3.324182   -0.513011
     44          1           0        0.522308    1.759258   -0.875971
     45          1           0       -0.310085    1.600566   -3.213384
     46          1           0       -2.568572    2.458027   -3.796418
     47          1           0       -3.954434    3.554834   -2.048362
     48          1           0       -3.073760    3.802379    0.252401
     49          8           0        0.187884    1.954825    1.608917
     50          1           0       -0.273095    1.101837    1.359793
     51          6           0        2.433181    0.665855    1.259514
     52          8           0        2.146520    0.219732    0.161313
     53          8           0        2.166621    0.048411    2.397416
     54          1           0        1.489885   -0.672928    2.266656
     55          6           0        3.186924    1.958821    1.464673
     56          1           0        2.725484    2.469194    2.314630
     57          1           0        4.215178    1.707654    1.763066
     58          6           0       -0.676663    2.989549    1.238822
     59          1           0       -1.533692    3.074732    1.927012
     60          1           0       -0.109263    3.925497    1.322674
     61          6           0       -1.652435   -0.249514    3.709798
     62          1           0       -0.962440    0.597936    3.711004
     63          1           0       -2.684237    0.093334    3.609954
     64          1           0       -1.530485   -0.854591    4.609252
     65          6           0        3.179387    2.840510    0.223035
     66          1           0        3.597983    2.284201   -0.624554
     67          1           0        2.137348    3.056742   -0.037154
     68          6           0        3.948583    4.141128    0.432619
     69          1           0        3.936064    4.760744   -0.468740
     70          1           0        3.509995    4.726306    1.247692
     71          1           0        4.994978    3.945408    0.691571
     72          6           0        5.203436   -1.920541   -0.631572
     73          1           0        5.816622   -1.843615    0.268489
     74          1           0        5.705710   -2.593180   -1.334572
     75          6           0        4.925786   -0.566111   -1.288286
     76          1           0        4.675533    0.172232   -0.520708
     77          1           0        5.762949   -0.189560   -1.879569
 ---------------------------------------------------------------------

 SCF Done:  E(RM062X) =  -1991.39025022     A.U. after   15 cycles

 The electronic state is 1-A.
 Alpha  occ. eigenvalues --  -90.10391 -19.63390 -19.60109 -19.59316 -19.58622
 Alpha  occ. eigenvalues --  -19.58370 -14.84817 -14.80532 -14.69430 -10.65449
 Alpha  occ. eigenvalues --  -10.63244 -10.62387 -10.61528 -10.59161 -10.59128
 Alpha  occ. eigenvalues --  -10.59023 -10.57817 -10.57399 -10.56853 -10.56649
 Alpha  occ. eigenvalues --  -10.56082 -10.55777 -10.55490 -10.54966 -10.54918
 Alpha  occ. eigenvalues --  -10.54858 -10.54574 -10.54536 -10.54487 -10.53783
 Alpha  occ. eigenvalues --  -10.53742 -10.53557 -10.53124 -10.52947 -10.52640
 Alpha  occ. eigenvalues --  -10.52513  -8.41357  -6.33595  -6.33502  -6.33422
 Alpha  occ. eigenvalues --   -1.19134  -1.17934  -1.12950  -1.10336  -1.09855
 Alpha  occ. eigenvalues --   -1.09174  -1.06199  -0.97561  -0.95242  -0.94829
 Alpha  occ. eigenvalues --   -0.92194  -0.89861  -0.88601  -0.88000  -0.85017
 Alpha  occ. eigenvalues --   -0.84965  -0.83649  -0.83504  -0.83299  -0.80216
 Alpha  occ. eigenvalues --   -0.79093  -0.76369  -0.75671  -0.74680  -0.70949
 Alpha  occ. eigenvalues --   -0.70195  -0.69045  -0.68743  -0.68369  -0.67985
 Alpha  occ. eigenvalues --   -0.65744  -0.64724  -0.63959  -0.63434  -0.61652
 Alpha  occ. eigenvalues --   -0.60282  -0.59408  -0.58949  -0.58371  -0.56176
 Alpha  occ. eigenvalues --   -0.55471  -0.55159  -0.55065  -0.54028  -0.53665
 Alpha  occ. eigenvalues --   -0.53435  -0.53084  -0.52343  -0.51980  -0.51730
 Alpha  occ. eigenvalues --   -0.51169  -0.51012  -0.50612  -0.50236  -0.49830
 Alpha  occ. eigenvalues --   -0.49625  -0.49440  -0.48850  -0.48369  -0.48012
 Alpha  occ. eigenvalues --   -0.47768  -0.47171  -0.46971  -0.46889  -0.45950
 Alpha  occ. eigenvalues --   -0.45871  -0.45252  -0.43967  -0.43652  -0.43423
 Alpha  occ. eigenvalues --   -0.42754  -0.42433  -0.42276  -0.41919  -0.41874
 Alpha  occ. eigenvalues --   -0.41160  -0.40825  -0.40597  -0.39926  -0.39518
 Alpha  occ. eigenvalues --   -0.39374  -0.39180  -0.38712  -0.38375  -0.37795
 Alpha  occ. eigenvalues --   -0.37369  -0.36271  -0.35924  -0.35381  -0.35108
 Alpha  occ. eigenvalues --   -0.34418  -0.33154  -0.32119  -0.31694  -0.31512
 Alpha  occ. eigenvalues --   -0.29830  -0.28882  -0.28324  -0.27541  -0.25447
 Alpha virt. eigenvalues --   -0.01022   0.00643   0.03337   0.03819   0.09091
 Alpha virt. eigenvalues --    0.10119   0.10947   0.11746   0.13008   0.13414
 Alpha virt. eigenvalues --    0.13810   0.14198   0.15214   0.15536   0.15735

 Mulliken charges:
               1
     1  C   -0.303988
     2  C   -0.304211
     3  C   -0.309814
     4  C   -0.073491
     5  C    0.061948
     6  C   -0.305294
     7  H    0.165782
     8  H    0.160897
     9  H    0.159194
    10  H    0.146723
    11  H    0.156630
    12  H    0.213181
    13  H    0.141424
    14  H    0.179982
    15  H    0.148548
    16  H    0.151352
    17  N   -0.424664
    18  C    0.100580
    19  C    0.084479
    20  C   -0.228085
    21  H    0.205669
    22  C   -0.227323
    23  H    0.264112
    24  C    0.428680
    25  H    0.188295
    26  H    0.206727
    27  N   -0.529582
    28  C   -0.156719
    29  H    0.178444
    30  H    0.198937
    31  C   -0.147408
    32  H    0.169510
    33  H    0.196534
    34  N   -0.754828
    35  S    1.249004
    36  O   -0.647009
    37  O   -0.670889
    38  C    0.048578
    39  C   -0.177195
    40  C   -0.186989
    41  C   -0.170163
    42  C   -0.162534
    43  C   -0.197264
    44  H    0.201151
    45  H    0.139740
    46  H    0.156458
    47  H    0.161758
    48  H    0.156181
    49  O   -0.709904
    50  H    0.479920
    51  C    0.642863
    52  O   -0.523764
    53  O   -0.643625
    54  H    0.485585
    55  C   -0.366669
    56  H    0.199628
    57  H    0.163863
    58  C   -0.069252
    59  H    0.129196
    60  H    0.161695
    61  C   -0.655366
    62  H    0.217946
    63  H    0.188230
    64  H    0.208231
    65  C   -0.286892
    66  H    0.142937
    67  H    0.168824
    68  C   -0.480490
    69  H    0.158232
    70  H    0.158759
    71  H    0.149492
    72  C   -0.337492
    73  H    0.183890
    74  H    0.170106
    75  C   -0.335563
    76  H    0.183162
    77  H    0.173410
 Sum of Mulliken charges =  -0.00000

 Dipole moment (field-independent basis, Debye):
    X=              1.5838    Y=             -0.4193    Z=             -6.4839  Tot=              6.6877
 Quadrupole moment (field-independent basis, Debye-Ang):
   XX=           -197.6590   YY=           -223.7780   ZZ=           -221.5259
   XY=            -12.2074   XZ=             -1.5587   YZ=             12.2420

 Normal termination of Gaussian 16 at Fri Feb  8 01:22:59 2019.
