 Gaussian 16, Revision A.03,
 Gaussian 16:  ES64L-G16RevA.03 25-Dec-2016

 ------------------------------------------
 #p M062X/6-31G* em=gd3 force int=ultrafine
 ------------------------------------------

 -----
 Title
 -----
 Symbolic Z-matrix:
 Charge =  0 Multiplicity = 1

                         Standard orientation:
 ---------------------------------------------------------------------
 Center     Atomic      Atomic             Coordinates (Angstroms)
 Number     Number       Type             X           Y           Z
 ---------------------------------------------------------------------
      1          6           0       -4.863483    0.515205   -0.552403
      2          6           0       -5.033766   -0.776569   -1.357123
      3          6           0       -3.691923   -1.237899   -1.938489
      4          6           0       -2.701466   -1.452320   -0.798320
      5          6           0       -2.501829   -0.144805    0.005757
      6          6           0       -3.838558    0.343664    0.571979
      7          1           0       -3.803259   -2.159407   -2.519693
      8          1           0       -5.437766   -1.564445   -0.707918
      9          1           0       -5.753443   -0.630531   -2.168623
     10          1           0       -4.524766    1.315366   -1.224681
     11          1           0       -5.825801    0.830056   -0.136260
     12          1           0       -3.089417   -2.221202   -0.122203
     13          1           0       -2.148953    0.613282   -0.705402
     14          1           0       -4.205443   -0.372578    1.315012
     15          1           0       -3.660912    1.298800    1.079105
     16          1           0       -3.325820   -0.454882   -2.616066
     17          7           0       -1.370660   -1.928502   -1.230811
     18          6           0       -0.684234   -1.273407   -2.205092
     19          6           0       -0.678000   -2.732076   -0.380991
     20          6           0        0.666473   -1.371198   -2.336498
     21          1           0       -1.271511   -0.640837   -2.858297
     22          6           0        0.674387   -2.867577   -0.439063
     23          1           0       -1.264917   -3.219654    0.389643
     24          6           0        1.425264   -2.099312   -1.371245
     25          1           0        1.155097   -0.821966   -3.130216
     26          1           0        1.157014   -3.476277    0.312342
     27          7           0        2.752572   -2.072850   -1.344210
     28          6           0        3.487999   -2.577951   -0.173663
     29          1           0        3.344461   -3.656559   -0.062711
     30          1           0        3.117709   -2.045114    0.713614
     31          6           0        3.524920   -1.034658   -2.048361
     32          1           0        3.785245   -1.382808   -3.055743
     33          1           0        2.931973   -0.118776   -2.095482
     34          7           0       -1.418815   -0.256035    0.966612
     35         16           0       -1.434476   -1.127346    2.345506
     36          8           0       -2.668268   -1.916179    2.341548
     37          8           0       -0.161569   -1.835733    2.480588
     38          6           0       -0.529380    2.674182   -0.069076
     39          6           0       -0.042378    2.073592   -1.238225
     40          6           0       -0.773738    2.152551   -2.423068
     41          6           0       -2.004942    2.807049   -2.461904
     42          6           0       -2.501657    3.393308   -1.299266
     43          6           0       -1.764289    3.327341   -0.117397
     44          1           0        0.885803    1.505443   -1.175696
     45          1           0       -0.373669    1.701473   -3.329107
     46          1           0       -2.569029    2.866014   -3.388621
     47          1           0       -3.460440    3.904277   -1.312606
     48          1           0       -2.157538    3.789772    0.785824
     49          8           0        0.689415    1.377257    1.662473
     50          1           0       -0.526100    0.245171    0.827977
     51          6           0        2.041423    0.746066    1.173749
     52          8           0        1.878937    0.185092    0.024241
     53          8           0        2.274007   -0.141163    2.249162
     54          1           0        1.574895   -0.816161    2.178421
     55          6           0        3.132731    1.830445    1.284116
     56          1           0        2.912227    2.504281    2.121822
     57          1           0        4.055236    1.302746    1.559255
     58          6           0        0.255069    2.638789    1.239081
     59          1           0       -0.405609    3.031847    2.026897
     60          1           0        1.095281    3.344687    1.171811
     61          6           0       -1.470463    0.082947    3.648088
     62          1           0       -0.583193    0.705626    3.496348
     63          1           0       -2.391578    0.660656    3.558158
     64          1           0       -1.428987   -0.447120    4.600931
     65          6           0        3.379769    2.613576   -0.003186
     66          1           0        3.667786    1.910015   -0.792604
     67          1           0        2.456169    3.083736   -0.361258
     68          6           0        4.457338    3.680532    0.175419
     69          1           0        4.654357    4.219922   -0.756280
     70          1           0        4.157453    4.415515    0.930869
     71          1           0        5.398958    3.232447    0.511976
     72          6           0        4.930900   -2.193091   -0.477944
     73          1           0        5.536189   -2.141259    0.428951
     74          1           0        5.384795   -2.920441   -1.160464
     75          6           0        4.755874   -0.836591   -1.161653
     76          1           0        4.503706   -0.086727   -0.406564
     77          1           0        5.631297   -0.510088   -1.727117
 ---------------------------------------------------------------------

 SCF Done:  E(RM062X) =  -1991.35570230     A.U. after   15 cycles

 The electronic state is 1-A.
 Alpha  occ. eigenvalues --  -90.14774 -19.62389 -19.62117 -19.58632 -19.56958
 Alpha  occ. eigenvalues --  -19.50557 -14.85188 -14.80032 -14.76593 -10.63154
 Alpha  occ. eigenvalues --  -10.62613 -10.62163 -10.62128 -10.61087 -10.59889
 Alpha  occ. eigenvalues --  -10.57761 -10.57755 -10.57607 -10.57048 -10.56971
 Alpha  occ. eigenvalues --  -10.56896 -10.56348 -10.55880 -10.55119 -10.55092
 Alpha  occ. eigenvalues --  -10.55037 -10.54878 -10.54686 -10.54683 -10.54643
 Alpha  occ. eigenvalues --  -10.54472 -10.54052 -10.53120 -10.51094 -10.50982
 Alpha  occ. eigenvalues --  -10.49534  -8.45743  -6.37971  -6.37921  -6.37790
 Alpha  occ. eigenvalues --   -1.22559  -1.13465  -1.12865  -1.10766  -1.08873
 Alpha  occ. eigenvalues --   -1.05930  -1.02477  -0.99867  -0.95840  -0.95221
 Alpha  occ. eigenvalues --   -0.93474  -0.90124  -0.88571  -0.86543  -0.85345
 Alpha  occ. eigenvalues --   -0.84944  -0.84857  -0.83702  -0.83306  -0.83074
 Alpha  occ. eigenvalues --   -0.76569  -0.75962  -0.75554  -0.74270  -0.73276
 Alpha  occ. eigenvalues --   -0.71765  -0.68232  -0.68149  -0.67752  -0.67493
 Alpha  occ. eigenvalues --   -0.66441  -0.65493  -0.64871  -0.63343  -0.60509
 Alpha  occ. eigenvalues --   -0.60383  -0.59956  -0.59432  -0.57931  -0.57691
 Alpha  occ. eigenvalues --   -0.57156  -0.56403  -0.55685  -0.55106  -0.54384
 Alpha  occ. eigenvalues --   -0.53564  -0.53086  -0.52683  -0.52482  -0.52174
 Alpha  occ. eigenvalues --   -0.51692  -0.50799  -0.50143  -0.49916  -0.49350
 Alpha  occ. eigenvalues --   -0.49239  -0.48954  -0.48479  -0.48176  -0.48006
 Alpha  occ. eigenvalues --   -0.47732  -0.47630  -0.47166  -0.46154  -0.45803
 Alpha  occ. eigenvalues --   -0.45258  -0.45160  -0.44387  -0.43984  -0.43198
 Alpha  occ. eigenvalues --   -0.42476  -0.42323  -0.41166  -0.40879  -0.40763
 Alpha  occ. eigenvalues --   -0.40675  -0.40401  -0.40110  -0.39834  -0.39401
 Alpha  occ. eigenvalues --   -0.39168  -0.38887  -0.38667  -0.38331  -0.37815
 Alpha  occ. eigenvalues --   -0.37400  -0.36499  -0.36435  -0.36069  -0.35017
 Alpha  occ. eigenvalues --   -0.34528  -0.34280  -0.31755  -0.31366  -0.30021
 Alpha  occ. eigenvalues --   -0.29279  -0.28830  -0.27752  -0.24209  -0.23930
 Alpha virt. eigenvalues --   -0.01227   0.00578   0.03210   0.03553   0.10147
 Alpha virt. eigenvalues --    0.10589   0.11330   0.12563   0.13170   0.13307
 Alpha virt. eigenvalues --    0.14137   0.14437   0.15037   0.15516   0.15549

 Mulliken charges:
               1
     1  C   -0.306425
     2  C   -0.307804
     3  C   -0.310978
     4  C   -0.060093
     5  C    0.064231
     6  C   -0.306949
     7  H    0.175557
     8  H    0.163267
     9  H    0.166802
    10  H    0.151037
    11  H    0.164992
    12  H    0.207031
    13  H    0.174920
    14  H    0.193012
    15  H    0.160956
    16  H    0.156244
    17  N   -0.437473
    18  C    0.078568
    19  C    0.079124
    20  C   -0.208625
    21  H    0.202996
    22  C   -0.220276
    23  H    0.243228
    24  C    0.449679
    25  H    0.192020
    26  H    0.209748
    27  N   -0.518466
    28  C   -0.166037
    29  H    0.166894
    30  H    0.221946
    31  C   -0.145823
    32  H    0.160335
    33  H    0.205533
    34  N   -0.808663
    35  S    1.238821
    36  O   -0.603193
    37  O   -0.591274
    38  C    0.050559
    39  C   -0.196160
    40  C   -0.192435
    41  C   -0.172277
    42  C   -0.165441
    43  C   -0.205040
    44  H    0.233310
    45  H    0.141844
    46  H    0.156216
    47  H    0.159796
    48  H    0.154115
    49  O   -0.594694
    50  H    0.448702
    51  C    0.716327
    52  O   -0.693567
    53  O   -0.704122
    54  H    0.432097
    55  C   -0.340584
    56  H    0.143367
    57  H    0.150696
    58  C   -0.081631
    59  H    0.131756
    60  H    0.156394
    61  C   -0.666045
    62  H    0.268712
    63  H    0.200257
    64  H    0.222700
    65  C   -0.285262
    66  H    0.142338
    67  H    0.140196
    68  C   -0.474701
    69  H    0.148077
    70  H    0.149404
    71  H    0.148283
    72  C   -0.333943
    73  H    0.184538
    74  H    0.159903
    75  C   -0.338383
    76  H    0.204796
    77  H    0.165045
 Sum of Mulliken charges =  -0.00000

 Dipole moment (field-independent basis, Debye):
    X=             -3.6091    Y=             -1.6034    Z=             -5.7136  Tot=              6.9457
 Quadrupole moment (field-independent basis, Debye-Ang):
   XX=           -208.6677   YY=           -222.2843   ZZ=           -218.3841
   XY=            -13.3458   XZ=             -4.0871   YZ=             10.7620

 Normal termination of Gaussian 16 at Thu Feb  7 10:22:21 2019.
