 Gaussian 16, Revision A.03,
 Gaussian 16:  ES64L-G16RevA.03 25-Dec-2016

 ------------------------------------------
 #p M062X/6-31G* em=gd3 force int=ultrafine
 ------------------------------------------

 -----
 Title
 -----
 Symbolic Z-matrix:
 Charge =  0 Multiplicity = 1

                         Standard orientation:
 ---------------------------------------------------------------------
 Center     Atomic      Atomic             Coordinates (Angstroms)
 Number     Number       Type             X           Y           Z
 ---------------------------------------------------------------------
      1          6           0       -4.868422    0.062039   -0.423953
      2          6           0       -4.903531   -1.221692   -1.258817
      3          6           0       -3.521797   -1.526320   -1.849926
      4          6           0       -2.516188   -1.647835   -0.709675
      5          6           0       -2.423893   -0.324761    0.102605
      6          6           0       -3.812117   -0.013960    0.682629
      7          1           0       -3.539169   -2.446346   -2.445458
      8          1           0       -5.218736   -2.062956   -0.627625
      9          1           0       -5.637456   -1.135570   -2.066846
     10          1           0       -4.629797    0.908771   -1.082895
     11          1           0       -5.857250    0.257559    0.004509
     12          1           0       -2.826741   -2.450742   -0.035878
     13          1           0       -2.213438    0.457426   -0.641820
     14          1           0       -4.078735   -0.786629    1.414991
     15          1           0       -3.746058    0.943765    1.213026
     16          1           0       -3.245650   -0.697705   -2.516654
     17          7           0       -1.149522   -2.008328   -1.152992
     18          6           0       -0.539831   -1.320248   -2.145312
     19          6           0       -0.392858   -2.762546   -0.321335
     20          6           0        0.813561   -1.345739   -2.323906
     21          1           0       -1.184848   -0.724323   -2.778082
     22          6           0        0.966187   -2.833775   -0.433977
     23          1           0       -0.926828   -3.264092    0.478608
     24          6           0        1.636777   -2.042676   -1.396831
     25          1           0        1.243302   -0.779025   -3.139352
     26          1           0        1.504679   -3.411459    0.304143
     27          7           0        2.972928   -1.943743   -1.415819
     28          6           0        3.773564   -2.443608   -0.291371
     29          1           0        3.720821   -3.534799   -0.232757
     30          1           0        3.384146   -2.015691    0.643107
     31          6           0        3.663437   -0.861103   -2.132691
     32          1           0        3.921051   -1.184655   -3.148696
     33          1           0        3.018582    0.020383   -2.178839
     34          7           0       -1.300114   -0.280407    1.015812
     35         16           0       -1.260707   -1.225503    2.280198
     36          8           0       -2.248651   -2.327269    2.245535
     37          8           0        0.139469   -1.670601    2.520650
     38          6           0       -1.147237    2.855023   -0.173627
     39          6           0       -0.411024    2.191596   -1.160822
     40          6           0       -0.929505    2.066298   -2.447987
     41          6           0       -2.195843    2.563279   -2.756807
     42          6           0       -2.940922    3.202593   -1.767956
     43          6           0       -2.413332    3.349273   -0.487178
     44          1           0        0.542943    1.736620   -0.900121
     45          1           0       -0.341830    1.570067   -3.217102
     46          1           0       -2.600150    2.455193   -3.758962
     47          1           0       -3.932895    3.584788   -1.990842
     48          1           0       -2.996645    3.843537    0.286888
     49          8           0        0.212904    1.935713    1.615423
     50          1           0       -0.279442    1.103549    1.354792
     51          6           0        2.436428    0.658322    1.234208
     52          8           0        2.129865    0.215588    0.140226
     53          8           0        2.193102    0.035113    2.374811
     54          1           0        1.502952   -0.674580    2.254066
     55          6           0        3.191884    1.952017    1.429232
     56          1           0        2.720367    2.474079    2.266690
     57          1           0        4.215886    1.704382    1.744203
     58          6           0       -0.586936    3.014015    1.224948
     59          1           0       -1.421974    3.182493    1.925425
     60          1           0        0.045106    3.912468    1.265437
     61          6           0       -1.646339   -0.207662    3.701831
     62          1           0       -0.949927    0.634124    3.690263
     63          1           0       -2.675769    0.141746    3.601639
     64          1           0       -1.525211   -0.803685    4.607419
     65          6           0        3.199383    2.816949    0.175691
     66          1           0        3.623469    2.248044   -0.660727
     67          1           0        2.161217    3.033972   -0.099267
     68          6           0        3.972059    4.117383    0.373432
     69          1           0        3.974761    4.721276   -0.538621
     70          1           0        3.526078    4.718874    1.172447
     71          1           0        5.013932    3.920798    0.649358
     72          6           0        5.178592   -1.932773   -0.598437
     73          1           0        5.783977   -1.839389    0.305363
     74          1           0        5.687239   -2.617211   -1.285136
     75          6           0        4.906405   -0.589928   -1.280689
     76          1           0        4.654540    0.162282   -0.527484
     77          1           0        5.747258   -0.225277   -1.874201
 ---------------------------------------------------------------------

 SCF Done:  E(RM062X) =  -1991.38954865     A.U. after   15 cycles

 The electronic state is 1-A.
 Alpha  occ. eigenvalues --  -90.10369 -19.63377 -19.60093 -19.59278 -19.58588
 Alpha  occ. eigenvalues --  -19.58356 -14.84808 -14.80514 -14.69402 -10.65458
 Alpha  occ. eigenvalues --  -10.63235 -10.62396 -10.61512 -10.59146 -10.59089
 Alpha  occ. eigenvalues --  -10.59036 -10.57821 -10.57421 -10.56833 -10.56650
 Alpha  occ. eigenvalues --  -10.56055 -10.55760 -10.55506 -10.54969 -10.54917
 Alpha  occ. eigenvalues --  -10.54862 -10.54584 -10.54543 -10.54494 -10.53761
 Alpha  occ. eigenvalues --  -10.53737 -10.53558 -10.53149 -10.53024 -10.52627
 Alpha  occ. eigenvalues --  -10.52566  -8.41334  -6.33572  -6.33479  -6.33399
 Alpha  occ. eigenvalues --   -1.19124  -1.17891  -1.12941  -1.10315  -1.09851
 Alpha  occ. eigenvalues --   -1.09151  -1.06158  -0.97544  -0.95255  -0.94810
 Alpha  occ. eigenvalues --   -0.92187  -0.89855  -0.88588  -0.88042  -0.85015
 Alpha  occ. eigenvalues --   -0.84954  -0.83648  -0.83504  -0.83301  -0.80198
 Alpha  occ. eigenvalues --   -0.79126  -0.76357  -0.75661  -0.74681  -0.70942
 Alpha  occ. eigenvalues --   -0.70191  -0.69074  -0.68725  -0.68362  -0.68001
 Alpha  occ. eigenvalues --   -0.65784  -0.64724  -0.63947  -0.63427  -0.61631
 Alpha  occ. eigenvalues --   -0.60271  -0.59397  -0.58974  -0.58359  -0.56170
 Alpha  occ. eigenvalues --   -0.55454  -0.55160  -0.55061  -0.54068  -0.53677
 Alpha  occ. eigenvalues --   -0.53438  -0.53077  -0.52383  -0.51967  -0.51723
 Alpha  occ. eigenvalues --   -0.51147  -0.50998  -0.50610  -0.50184  -0.49829
 Alpha  occ. eigenvalues --   -0.49607  -0.49474  -0.48837  -0.48355  -0.48001
 Alpha  occ. eigenvalues --   -0.47777  -0.47170  -0.46978  -0.46936  -0.45939
 Alpha  occ. eigenvalues --   -0.45838  -0.45245  -0.43955  -0.43651  -0.43422
 Alpha  occ. eigenvalues --   -0.42760  -0.42459  -0.42251  -0.41920  -0.41899
 Alpha  occ. eigenvalues --   -0.41157  -0.40844  -0.40574  -0.39914  -0.39524
 Alpha  occ. eigenvalues --   -0.39367  -0.39198  -0.38753  -0.38378  -0.37841
 Alpha  occ. eigenvalues --   -0.37335  -0.36239  -0.35886  -0.35360  -0.35114
 Alpha  occ. eigenvalues --   -0.34399  -0.33125  -0.32089  -0.31714  -0.31501
 Alpha  occ. eigenvalues --   -0.29846  -0.28888  -0.28319  -0.27491  -0.25418
 Alpha virt. eigenvalues --   -0.01022   0.00648   0.03310   0.03799   0.09087
 Alpha virt. eigenvalues --    0.10142   0.10923   0.11786   0.12999   0.13465
 Alpha virt. eigenvalues --    0.13849   0.14233   0.15137   0.15503   0.15752

 Mulliken charges:
               1
     1  C   -0.303937
     2  C   -0.304191
     3  C   -0.309725
     4  C   -0.073375
     5  C    0.062260
     6  C   -0.305219
     7  H    0.165900
     8  H    0.160916
     9  H    0.159145
    10  H    0.146437
    11  H    0.156653
    12  H    0.212988
    13  H    0.141488
    14  H    0.179573
    15  H    0.149168
    16  H    0.150890
    17  N   -0.424484
    18  C    0.100227
    19  C    0.084036
    20  C   -0.227900
    21  H    0.205229
    22  C   -0.227140
    23  H    0.264304
    24  C    0.428400
    25  H    0.188228
    26  H    0.206892
    27  N   -0.529077
    28  C   -0.157389
    29  H    0.178402
    30  H    0.199202
    31  C   -0.147174
    32  H    0.169541
    33  H    0.196079
    34  N   -0.755097
    35  S    1.249412
    36  O   -0.647039
    37  O   -0.670676
    38  C    0.048719
    39  C   -0.177191
    40  C   -0.187020
    41  C   -0.169981
    42  C   -0.162204
    43  C   -0.197750
    44  H    0.202712
    45  H    0.139376
    46  H    0.156410
    47  H    0.161813
    48  H    0.156600
    49  O   -0.711420
    50  H    0.481015
    51  C    0.646068
    52  O   -0.523365
    53  O   -0.644661
    54  H    0.485639
    55  C   -0.367396
    56  H    0.200308
    57  H    0.163972
    58  C   -0.067882
    59  H    0.128572
    60  H    0.159002
    61  C   -0.656220
    62  H    0.218933
    63  H    0.188116
    64  H    0.208012
    65  C   -0.287072
    66  H    0.143381
    67  H    0.166908
    68  C   -0.480403
    69  H    0.158399
    70  H    0.158580
    71  H    0.150007
    72  C   -0.337372
    73  H    0.184062
    74  H    0.170059
    75  C   -0.335677
    76  H    0.182702
    77  H    0.173302
 Sum of Mulliken charges =  -0.00000

 Dipole moment (field-independent basis, Debye):
    X=              1.5580    Y=             -0.4000    Z=             -6.5089  Tot=              6.7047
 Quadrupole moment (field-independent basis, Debye-Ang):
   XX=           -198.0047   YY=           -223.3176   ZZ=           -221.7912
   XY=            -12.0646   XZ=             -1.2836   YZ=             12.3539

 Normal termination of Gaussian 16 at Fri Feb  8 00:43:32 2019.
