 Gaussian 16, Revision A.03,
 Gaussian 16:  ES64L-G16RevA.03 25-Dec-2016

 ------------------------------------------
 #p M062X/6-31G* em=gd3 force int=ultrafine
 ------------------------------------------

 -----
 Title
 -----
 Symbolic Z-matrix:
 Charge =  0 Multiplicity = 1

                         Standard orientation:
 ---------------------------------------------------------------------
 Center     Atomic      Atomic             Coordinates (Angstroms)
 Number     Number       Type             X           Y           Z
 ---------------------------------------------------------------------
      1          6           0       -4.844664    0.394678   -0.507907
      2          6           0       -4.981392   -0.877092   -1.350120
      3          6           0       -3.626067   -1.285843   -1.939513
      4          6           0       -2.635247   -1.503834   -0.800469
      5          6           0       -2.456739   -0.215237    0.044993
      6          6           0       -3.815195    0.218802    0.613169
      7          1           0       -3.712712   -2.193145   -2.547605
      8          1           0       -5.366728   -1.694000   -0.725875
      9          1           0       -5.702225   -0.726820   -2.160376
     10          1           0       -4.526269    1.221132   -1.158434
     11          1           0       -5.816729    0.673261   -0.087655
     12          1           0       -3.002498   -2.301857   -0.147575
     13          1           0       -2.141451    0.567297   -0.660315
     14          1           0       -4.163630   -0.527015    1.336821
     15          1           0       -3.668323    1.165826    1.145861
     16          1           0       -3.281787   -0.472991   -2.593330
     17          7           0       -1.290278   -1.937433   -1.246569
     18          6           0       -0.629911   -1.252704   -2.211707
     19          6           0       -0.577099   -2.734739   -0.413984
     20          6           0        0.724558   -1.321785   -2.358525
     21          1           0       -1.235068   -0.617873   -2.845917
     22          6           0        0.780384   -2.847877   -0.491890
     23          1           0       -1.146402   -3.242295    0.357118
     24          6           0        1.503289   -2.059668   -1.422504
     25          1           0        1.192449   -0.747580   -3.147344
     26          1           0        1.279749   -3.456005    0.249266
     27          7           0        2.839010   -2.000965   -1.404171
     28          6           0        3.590111   -2.511303   -0.248325
     29          1           0        3.484806   -3.596281   -0.164703
     30          1           0        3.202368   -2.034670    0.663019
     31          6           0        3.580238   -0.928062   -2.089494
     32          1           0        3.849279   -1.246819   -3.103436
     33          1           0        2.965770   -0.025350   -2.132848
     34          7           0       -1.347357   -0.326212    0.972247
     35         16           0       -1.389505   -1.226157    2.304105
     36          8           0       -2.547972   -2.133816    2.281945
     37          8           0       -0.062277   -1.850983    2.486384
     38          6           0       -0.724341    2.766588   -0.065091
     39          6           0       -0.152756    2.122157   -1.171674
     40          6           0       -0.802391    2.149782   -2.403928
     41          6           0       -2.042961    2.776605   -2.539981
     42          6           0       -2.624505    3.392189   -1.434327
     43          6           0       -1.960495    3.388729   -0.210484
     44          1           0        0.776539    1.568389   -1.044568
     45          1           0       -0.342644    1.674695   -3.268968
     46          1           0       -2.551326    2.789688   -3.499355
     47          1           0       -3.593074    3.875088   -1.518331
     48          1           0       -2.408212    3.860221    0.661116
     49          8           0        0.297927    1.418934    1.627380
     50          1           0       -0.513843    0.570700    1.153311
     51          6           0        2.333500    0.597992    1.172744
     52          8           0        2.073286    0.154105    0.065838
     53          8           0        2.246462   -0.136426    2.288997
     54          1           0        1.532506   -0.805483    2.177421
     55          6           0        3.098434    1.884094    1.391886
     56          1           0        2.630838    2.456199    2.200405
     57          1           0        4.082313    1.569308    1.766685
     58          6           0       -0.062580    2.705341    1.297528
     59          1           0       -0.755954    3.144129    2.039481
     60          1           0        0.817181    3.382031    1.292468
     61          6           0       -1.537307   -0.067335    3.655411
     62          1           0       -0.713894    0.639933    3.513451
     63          1           0       -2.502322    0.436398    3.577279
     64          1           0       -1.450456   -0.609964    4.597771
     65          6           0        3.276958    2.726308    0.131055
     66          1           0        3.663076    2.088879   -0.672893
     67          1           0        2.307203    3.094666   -0.222269
     68          6           0        4.222972    3.902553    0.365022
     69          1           0        4.385224    4.476739   -0.551979
     70          1           0        3.823377    4.586600    1.121351
     71          1           0        5.199091    3.553170    0.719342
     72          6           0        5.020529   -2.068083   -0.535678
     73          1           0        5.620687   -2.011467    0.374469
     74          1           0        5.500851   -2.768573   -1.226798
     75          6           0        4.810759   -0.708519   -1.204810
     76          1           0        4.560749    0.036182   -0.443947
     77          1           0        5.676059   -0.358491   -1.771073
 ---------------------------------------------------------------------

 SCF Done:  E(RM062X) =  -1991.36388815     A.U. after   15 cycles

 The electronic state is 1-A.
 Alpha  occ. eigenvalues --  -90.12020 -19.62676 -19.60037 -19.59883 -19.58815
 Alpha  occ. eigenvalues --  -19.54246 -14.85157 -14.80564 -14.71906 -10.65334
 Alpha  occ. eigenvalues --  -10.63465 -10.62707 -10.62093 -10.60034 -10.58940
 Alpha  occ. eigenvalues --  -10.58820 -10.58021 -10.57906 -10.57121 -10.56096
 Alpha  occ. eigenvalues --  -10.55810 -10.55484 -10.55302 -10.55038 -10.54587
 Alpha  occ. eigenvalues --  -10.54514 -10.54425 -10.54303 -10.54061 -10.53772
 Alpha  occ. eigenvalues --  -10.53500 -10.53321 -10.53173 -10.52918 -10.52837
 Alpha  occ. eigenvalues --  -10.52454  -8.43012  -6.35238  -6.35165  -6.35077
 Alpha  occ. eigenvalues --   -1.19703  -1.18095  -1.13338  -1.09595  -1.08601
 Alpha  occ. eigenvalues --   -1.07934  -1.04747  -0.99024  -0.95294  -0.94628
 Alpha  occ. eigenvalues --   -0.92932  -0.90159  -0.88776  -0.87762  -0.84809
 Alpha  occ. eigenvalues --   -0.84611  -0.84092  -0.83860  -0.82896  -0.81147
 Alpha  occ. eigenvalues --   -0.78775  -0.76608  -0.75839  -0.72353  -0.71680
 Alpha  occ. eigenvalues --   -0.70982  -0.68828  -0.68598  -0.68428  -0.67474
 Alpha  occ. eigenvalues --   -0.65679  -0.64625  -0.64204  -0.63042  -0.62378
 Alpha  occ. eigenvalues --   -0.60444  -0.59922  -0.58457  -0.58152  -0.56646
 Alpha  occ. eigenvalues --   -0.56143  -0.55865  -0.54897  -0.54352  -0.53823
 Alpha  occ. eigenvalues --   -0.53388  -0.53278  -0.52772  -0.51817  -0.51611
 Alpha  occ. eigenvalues --   -0.51263  -0.50956  -0.50644  -0.50498  -0.50032
 Alpha  occ. eigenvalues --   -0.49761  -0.49061  -0.48493  -0.48419  -0.47427
 Alpha  occ. eigenvalues --   -0.47249  -0.47028  -0.46676  -0.46434  -0.45949
 Alpha  occ. eigenvalues --   -0.45842  -0.45162  -0.44503  -0.43603  -0.43386
 Alpha  occ. eigenvalues --   -0.43011  -0.42404  -0.42035  -0.41763  -0.41634
 Alpha  occ. eigenvalues --   -0.41055  -0.40761  -0.40283  -0.40038  -0.39555
 Alpha  occ. eigenvalues --   -0.39259  -0.39031  -0.38743  -0.38578  -0.37914
 Alpha  occ. eigenvalues --   -0.37364  -0.37088  -0.36555  -0.35824  -0.34809
 Alpha  occ. eigenvalues --   -0.34475  -0.33679  -0.32958  -0.30940  -0.29519
 Alpha  occ. eigenvalues --   -0.29020  -0.28655  -0.27729  -0.26326  -0.25394
 Alpha virt. eigenvalues --   -0.01390   0.00410   0.03668   0.04387   0.10148
 Alpha virt. eigenvalues --    0.10300   0.11293   0.11480   0.12567   0.13403
 Alpha virt. eigenvalues --    0.13801   0.14281   0.15181   0.15358   0.15576

 Mulliken charges:
               1
     1  C   -0.305779
     2  C   -0.305785
     3  C   -0.310840
     4  C   -0.066524
     5  C    0.075194
     6  C   -0.306508
     7  H    0.169674
     8  H    0.161903
     9  H    0.162339
    10  H    0.149446
    11  H    0.160258
    12  H    0.208751
    13  H    0.158095
    14  H    0.186377
    15  H    0.157246
    16  H    0.154012
    17  N   -0.428513
    18  C    0.094181
    19  C    0.094745
    20  C   -0.223043
    21  H    0.206693
    22  C   -0.227348
    23  H    0.252960
    24  C    0.428951
    25  H    0.190743
    26  H    0.208582
    27  N   -0.522365
    28  C   -0.160102
    29  H    0.176242
    30  H    0.200867
    31  C   -0.146611
    32  H    0.168870
    33  H    0.197969
    34  N   -0.819177
    35  S    1.248423
    36  O   -0.620904
    37  O   -0.640322
    38  C    0.057579
    39  C   -0.187928
    40  C   -0.189771
    41  C   -0.174456
    42  C   -0.161214
    43  C   -0.203911
    44  H    0.205425
    45  H    0.135385
    46  H    0.153366
    47  H    0.158098
    48  H    0.155425
    49  O   -0.722854
    50  H    0.477790
    51  C    0.686621
    52  O   -0.538292
    53  O   -0.650036
    54  H    0.471367
    55  C   -0.367927
    56  H    0.195361
    57  H    0.162674
    58  C   -0.037715
    59  H    0.099693
    60  H    0.114746
    61  C   -0.671496
    62  H    0.258009
    63  H    0.191791
    64  H    0.210601
    65  C   -0.292200
    66  H    0.143847
    67  H    0.165758
    68  C   -0.479724
    69  H    0.157853
    70  H    0.158841
    71  H    0.150089
    72  C   -0.334765
    73  H    0.184575
    74  H    0.167985
    75  C   -0.335667
    76  H    0.184213
    77  H    0.172169
 Sum of Mulliken charges =  -0.00000

 Dipole moment (field-independent basis, Debye):
    X=              0.6925    Y=             -1.3239    Z=             -6.3821  Tot=              6.5546
 Quadrupole moment (field-independent basis, Debye-Ang):
   XX=           -200.6588   YY=           -224.9910   ZZ=           -221.0192
   XY=            -11.1354   XZ=             -0.3845   YZ=             11.6408

 Normal termination of Gaussian 16 at Thu Feb  7 19:52:51 2019.
