 Gaussian 16, Revision A.03,
 Gaussian 16:  ES64L-G16RevA.03 25-Dec-2016

 ------------------------------------------
 #p M062X/6-31G* em=gd3 force int=ultrafine
 ------------------------------------------

 -----
 Title
 -----
 Symbolic Z-matrix:
 Charge =  0 Multiplicity = 1

                         Standard orientation:
 ---------------------------------------------------------------------
 Center     Atomic      Atomic             Coordinates (Angstroms)
 Number     Number       Type             X           Y           Z
 ---------------------------------------------------------------------
      1          6           0       -4.781504    0.392992   -0.571037
      2          6           0       -4.953637   -0.893710   -1.383896
      3          6           0       -3.618143   -1.337117   -1.993952
      4          6           0       -2.613006   -1.544943   -0.867178
      5          6           0       -2.394007   -0.231326   -0.072089
      6          6           0       -3.725639    0.234302    0.527607
      7          1           0       -3.731058   -2.257681   -2.576582
      8          1           0       -5.336192   -1.692307   -0.734800
      9          1           0       -5.690847   -0.747574   -2.179571
     10          1           0       -4.476511    1.203751   -1.245413
     11          1           0       -5.738022    0.686838   -0.126617
     12          1           0       -2.992624   -2.307855   -0.180541
     13          1           0       -2.076626    0.529678   -0.796534
     14          1           0       -4.067418   -0.492009    1.272624
     15          1           0       -3.555593    1.190178    1.034376
     16          1           0       -3.271248   -0.547848   -2.674595
     17          7           0       -1.284222   -2.020488   -1.305231
     18          6           0       -0.599241   -1.342159   -2.263700
     19          6           0       -0.586143   -2.800623   -0.436793
     20          6           0        0.757784   -1.384551   -2.353986
     21          1           0       -1.193945   -0.734423   -2.934515
     22          6           0        0.771988   -2.873260   -0.447994
     23          1           0       -1.176849   -3.307416    0.318666
     24          6           0        1.511451   -2.059907   -1.347648
     25          1           0        1.246911   -0.820860   -3.136676
     26          1           0        1.258434   -3.453120    0.323458
     27          7           0        2.831264   -1.939061   -1.256380
     28          6           0        3.555559   -2.356491   -0.045515
     29          1           0        3.450701   -3.432916    0.115490
     30          1           0        3.142819   -1.798639    0.808199
     31          6           0        3.555088   -0.881182   -1.973203
     32          1           0        3.807518   -1.219395   -2.985670
     33          1           0        2.919681    0.007118   -2.025888
     34          7           0       -1.282288   -0.321932    0.861044
     35         16           0       -1.343951   -1.172595    2.249253
     36          8           0       -2.536079   -2.026247    2.219287
     37          8           0       -0.047883   -1.824228    2.458146
     38          6           0       -0.625365    2.697665    0.056745
     39          6           0       -0.151182    2.230406   -1.179047
     40          6           0       -0.939853    2.322731   -2.324090
     41          6           0       -2.219814    2.875194   -2.268213
     42          6           0       -2.704793    3.336258   -1.047648
     43          6           0       -1.909492    3.248251    0.095381
     44          1           0        0.815122    1.741481   -1.213223
     45          1           0       -0.545302    1.966173   -3.273131
     46          1           0       -2.828676    2.950801   -3.164990
     47          1           0       -3.699255    3.769923   -0.982825
     48          1           0       -2.296041    3.622864    1.041479
     49          8           0        0.686050    1.557491    1.907898
     50          1           0       -0.295126   -0.070952    0.554578
     51          6           0        1.820092    0.830360    1.263450
     52          8           0        1.412071    0.224037    0.166590
     53          8           0        2.210642   -0.054431    2.298041
     54          1           0        1.514252   -0.735440    2.327030
     55          6           0        3.025834    1.799334    1.135062
     56          1           0        2.989147    2.516915    1.964648
     57          1           0        3.916858    1.185510    1.318464
     58          6           0        0.220927    2.746917    1.332176
     59          1           0       -0.403988    3.215437    2.103634
     60          1           0        1.056700    3.440850    1.158722
     61          6           0       -1.525134    0.036345    3.539890
     62          1           0       -0.664077    0.704601    3.450852
     63          1           0       -2.463952    0.568762    3.377742
     64          1           0       -1.536948   -0.493953    4.493534
     65          6           0        3.202301    2.526818   -0.194705
     66          1           0        3.156620    1.794891   -1.008930
     67          1           0        2.378644    3.225217   -0.382326
     68          6           0        4.525183    3.289084   -0.251313
     69          1           0        4.653412    3.808549   -1.206242
     70          1           0        4.577617    4.035727    0.547573
     71          1           0        5.375119    2.610199   -0.118488
     72          6           0        4.991036   -1.941621   -0.348797
     73          1           0        5.579785   -1.819661    0.562199
     74          1           0        5.477003   -2.692883   -0.980923
     75          6           0        4.798457   -0.630173   -1.114536
     76          1           0        4.578042    0.171612   -0.405496
     77          1           0        5.664946   -0.340785   -1.712888
 ---------------------------------------------------------------------

 SCF Done:  E(RM062X) =  -1991.35880367     A.U. after   14 cycles

 The electronic state is 1-A.
 Alpha  occ. eigenvalues --  -90.14107 -19.61723 -19.61702 -19.58745 -19.56723
 Alpha  occ. eigenvalues --  -19.51350 -14.85147 -14.80453 -14.75596 -10.63406
 Alpha  occ. eigenvalues --  -10.62778 -10.62301 -10.62134 -10.60689 -10.59276
 Alpha  occ. eigenvalues --  -10.58578 -10.57971 -10.57909 -10.57116 -10.56884
 Alpha  occ. eigenvalues --  -10.56670 -10.55632 -10.55583 -10.55141 -10.54924
 Alpha  occ. eigenvalues --  -10.54814 -10.54749 -10.54698 -10.54544 -10.54373
 Alpha  occ. eigenvalues --  -10.54297 -10.54265 -10.53091 -10.51592 -10.51521
 Alpha  occ. eigenvalues --  -10.49755  -8.45085  -6.37301  -6.37280  -6.37123
 Alpha  occ. eigenvalues --   -1.21935  -1.13627  -1.13499  -1.10190  -1.09350
 Alpha  occ. eigenvalues --   -1.05906  -1.01655  -0.99377  -0.95711  -0.94971
 Alpha  occ. eigenvalues --   -0.93472  -0.90273  -0.88751  -0.85885  -0.85821
 Alpha  occ. eigenvalues --   -0.84812  -0.84678  -0.84277  -0.83042  -0.82648
 Alpha  occ. eigenvalues --   -0.76653  -0.76336  -0.75833  -0.74397  -0.72744
 Alpha  occ. eigenvalues --   -0.71604  -0.68328  -0.68261  -0.67932  -0.67173
 Alpha  occ. eigenvalues --   -0.66759  -0.65212  -0.64868  -0.63521  -0.60574
 Alpha  occ. eigenvalues --   -0.60403  -0.59793  -0.58921  -0.57815  -0.57571
 Alpha  occ. eigenvalues --   -0.57151  -0.56429  -0.55746  -0.55165  -0.54179
 Alpha  occ. eigenvalues --   -0.53501  -0.52642  -0.52419  -0.52386  -0.51899
 Alpha  occ. eigenvalues --   -0.51538  -0.51057  -0.50879  -0.49856  -0.49589
 Alpha  occ. eigenvalues --   -0.49156  -0.48815  -0.48204  -0.48117  -0.48063
 Alpha  occ. eigenvalues --   -0.47643  -0.47444  -0.46899  -0.46462  -0.46097
 Alpha  occ. eigenvalues --   -0.44901  -0.44705  -0.44117  -0.43886  -0.43253
 Alpha  occ. eigenvalues --   -0.42475  -0.42102  -0.41472  -0.41393  -0.41157
 Alpha  occ. eigenvalues --   -0.40887  -0.40460  -0.40004  -0.39837  -0.39403
 Alpha  occ. eigenvalues --   -0.39256  -0.39053  -0.38455  -0.37911  -0.37583
 Alpha  occ. eigenvalues --   -0.37376  -0.36726  -0.36573  -0.35701  -0.34887
 Alpha  occ. eigenvalues --   -0.34369  -0.33918  -0.31703  -0.31031  -0.29751
 Alpha  occ. eigenvalues --   -0.28888  -0.28588  -0.27613  -0.24949  -0.24488
 Alpha virt. eigenvalues --   -0.01481   0.00440   0.03580   0.03787   0.10161
 Alpha virt. eigenvalues --    0.11035   0.11636   0.12140   0.13202   0.13543
 Alpha virt. eigenvalues --    0.14200   0.14658   0.14777   0.15275   0.15599

 Mulliken charges:
               1
     1  C   -0.306166
     2  C   -0.306986
     3  C   -0.309741
     4  C   -0.059637
     5  C    0.057175
     6  C   -0.311853
     7  H    0.173797
     8  H    0.162771
     9  H    0.165292
    10  H    0.150950
    11  H    0.163072
    12  H    0.208636
    13  H    0.172722
    14  H    0.193149
    15  H    0.163510
    16  H    0.153970
    17  N   -0.431170
    18  C    0.068468
    19  C    0.063740
    20  C   -0.203393
    21  H    0.206783
    22  C   -0.208902
    23  H    0.245713
    24  C    0.447696
    25  H    0.191421
    26  H    0.211688
    27  N   -0.527325
    28  C   -0.173118
    29  H    0.169822
    30  H    0.232945
    31  C   -0.154323
    32  H    0.167163
    33  H    0.202732
    34  N   -0.816833
    35  S    1.253909
    36  O   -0.612235
    37  O   -0.608216
    38  C    0.087834
    39  C   -0.180862
    40  C   -0.189252
    41  C   -0.170766
    42  C   -0.163693
    43  C   -0.212174
    44  H    0.206900
    45  H    0.140881
    46  H    0.154776
    47  H    0.158485
    48  H    0.152432
    49  O   -0.548728
    50  H    0.449348
    51  C    0.726718
    52  O   -0.723747
    53  O   -0.718152
    54  H    0.445526
    55  C   -0.338265
    56  H    0.149674
    57  H    0.150089
    58  C   -0.093244
    59  H    0.140898
    60  H    0.147178
    61  C   -0.662968
    62  H    0.272015
    63  H    0.196267
    64  H    0.217411
    65  C   -0.294884
    66  H    0.139653
    67  H    0.146573
    68  C   -0.474584
    69  H    0.149174
    70  H    0.155743
    71  H    0.144079
    72  C   -0.331783
    73  H    0.187507
    74  H    0.163301
    75  C   -0.343661
    76  H    0.195634
    77  H    0.171443
 Sum of Mulliken charges =  -0.00000

 Dipole moment (field-independent basis, Debye):
    X=             -2.3359    Y=             -1.8441    Z=             -6.4343  Tot=              7.0893
 Quadrupole moment (field-independent basis, Debye-Ang):
   XX=           -205.2569   YY=           -223.2154   ZZ=           -219.7445
   XY=            -12.1651   XZ=             -5.3822   YZ=             10.0302

 Normal termination of Gaussian 16 at Thu Feb  7 16:03:26 2019.
