 Gaussian 16, Revision A.03,
 Gaussian 16:  ES64L-G16RevA.03 25-Dec-2016

 ------------------------------------------
 #p M062X/6-31G* em=gd3 force int=ultrafine
 ------------------------------------------

 -----
 Title
 -----
 Symbolic Z-matrix:
 Charge =  0 Multiplicity = 1

                         Standard orientation:
 ---------------------------------------------------------------------
 Center     Atomic      Atomic             Coordinates (Angstroms)
 Number     Number       Type             X           Y           Z
 ---------------------------------------------------------------------
      1          6           0       -4.781526    0.390409   -0.574377
      2          6           0       -4.952169   -0.896822   -1.386721
      3          6           0       -3.615882   -1.339646   -1.995443
      4          6           0       -2.611536   -1.546306   -0.867738
      5          6           0       -2.393990   -0.232136   -0.073147
      6          6           0       -3.726450    0.232944    0.525192
      7          1           0       -3.727700   -2.260536   -2.577765
      8          1           0       -5.334756   -1.695335   -0.737542
      9          1           0       -5.688815   -0.751560   -2.183090
     10          1           0       -4.476528    1.201033   -1.248915
     11          1           0       -5.738600    0.683850   -0.130867
     12          1           0       -2.991259   -2.309091   -0.181019
     13          1           0       -2.076493    0.528678   -0.797732
     14          1           0       -4.068413   -0.493225    1.270264
     15          1           0       -3.557460    1.189170    1.031657
     16          1           0       -3.268952   -0.550430   -2.676125
     17          7           0       -1.282149   -2.021313   -1.304524
     18          6           0       -0.597149   -1.343852   -2.263547
     19          6           0       -0.584040   -2.800094   -0.434879
     20          6           0        0.759936   -1.385831   -2.353370
     21          1           0       -1.191867   -0.737260   -2.935371
     22          6           0        0.774137   -2.872035   -0.445434
     23          1           0       -1.174809   -3.306394    0.320859
     24          6           0        1.513538   -2.059545   -1.345914
     25          1           0        1.249046   -0.822999   -3.136683
     26          1           0        1.260568   -3.450719    0.326907
     27          7           0        2.833283   -1.938135   -1.254452
     28          6           0        3.557427   -2.353464   -0.042758
     29          1           0        3.452891   -3.429683    0.119816
     30          1           0        3.144246   -1.794522    0.810048
     31          6           0        3.557048   -0.881382   -1.972931
     32          1           0        3.809647   -1.221236   -2.984813
     33          1           0        2.921561    0.006763   -2.027401
     34          7           0       -1.282982   -0.321514    0.860955
     35         16           0       -1.345399   -1.171368    2.249585
     36          8           0       -2.537185   -2.025480    2.219360
     37          8           0       -0.049298   -1.822516    2.459865
     38          6           0       -0.626645    2.697760    0.056793
     39          6           0       -0.152306    2.231270   -1.179343
     40          6           0       -0.941444    2.323041   -2.324101
     41          6           0       -2.221958    2.874273   -2.267658
     42          6           0       -2.706901    3.334752   -1.046936
     43          6           0       -1.911222    3.247211    0.095851
     44          1           0        0.815363    1.743865   -1.214836
     45          1           0       -0.546551    1.967625   -3.273756
     46          1           0       -2.830882    2.949826   -3.164381
     47          1           0       -3.700986    3.768254   -0.982461
     48          1           0       -2.297435    3.622096    1.041598
     49          8           0        0.685235    1.558855    1.908278
     50          1           0       -0.295566   -0.070610    0.554723
     51          6           0        1.818750    0.831010    1.263753
     52          8           0        1.409898    0.224401    0.167196
     53          8           0        2.209330   -0.053461    2.298528
     54          1           0        1.512609   -0.734200    2.328369
     55          6           0        3.024772    1.799512    1.134351
     56          1           0        2.989011    2.517490    1.963786
     57          1           0        3.915488    1.186161    1.317990
     58          6           0        0.220358    2.747983    1.331799
     59          1           0       -0.404062    3.217236    2.103053
     60          1           0        1.056320    3.441380    1.157415
     61          6           0       -1.527854    0.038375    3.539281
     62          1           0       -0.666988    0.706873    3.450292
     63          1           0       -2.466776    0.570323    3.376176
     64          1           0       -1.540053   -0.491257    4.493304
     65          6           0        3.200759    2.526441   -0.195838
     66          1           0        3.151944    1.794303   -1.009671
     67          1           0        2.378933    3.226238   -0.382663
     68          6           0        4.526272    3.284579   -0.254792
     69          1           0        4.657030    3.803311   -1.209417
     70          1           0        4.583843    4.033006    0.543658
     71          1           0        5.373870    2.601259   -0.122601
     72          6           0        4.992879   -1.938685   -0.346343
     73          1           0        5.581268   -1.814858    0.564626
     74          1           0        5.479310   -2.690950   -0.976875
     75          6           0        4.800310   -0.628708   -1.114589
     76          1           0        4.579938    0.174474   -0.407151
     77          1           0        5.666857   -0.340455   -1.713400
 ---------------------------------------------------------------------

 SCF Done:  E(RM062X) =  -1991.35881321     A.U. after   14 cycles

 The electronic state is 1-A.
 Alpha  occ. eigenvalues --  -90.14103 -19.61719 -19.61698 -19.58745 -19.56726
 Alpha  occ. eigenvalues --  -19.51352 -14.85145 -14.80453 -14.75586 -10.63404
 Alpha  occ. eigenvalues --  -10.62776 -10.62304 -10.62130 -10.60686 -10.59270
 Alpha  occ. eigenvalues --  -10.58585 -10.57968 -10.57907 -10.57112 -10.56882
 Alpha  occ. eigenvalues --  -10.56668 -10.55629 -10.55581 -10.55143 -10.54929
 Alpha  occ. eigenvalues --  -10.54810 -10.54746 -10.54691 -10.54544 -10.54372
 Alpha  occ. eigenvalues --  -10.54295 -10.54260 -10.53102 -10.51615 -10.51526
 Alpha  occ. eigenvalues --  -10.49757  -8.45081  -6.37297  -6.37275  -6.37119
 Alpha  occ. eigenvalues --   -1.21932  -1.13628  -1.13497  -1.10186  -1.09351
 Alpha  occ. eigenvalues --   -1.05906  -1.01650  -0.99375  -0.95708  -0.94969
 Alpha  occ. eigenvalues --   -0.93470  -0.90270  -0.88751  -0.85883  -0.85819
 Alpha  occ. eigenvalues --   -0.84810  -0.84676  -0.84280  -0.83041  -0.82645
 Alpha  occ. eigenvalues --   -0.76652  -0.76333  -0.75832  -0.74396  -0.72741
 Alpha  occ. eigenvalues --   -0.71601  -0.68328  -0.68262  -0.67932  -0.67171
 Alpha  occ. eigenvalues --   -0.66761  -0.65211  -0.64870  -0.63520  -0.60577
 Alpha  occ. eigenvalues --   -0.60403  -0.59795  -0.58915  -0.57816  -0.57570
 Alpha  occ. eigenvalues --   -0.57149  -0.56428  -0.55742  -0.55163  -0.54177
 Alpha  occ. eigenvalues --   -0.53498  -0.52643  -0.52417  -0.52384  -0.51896
 Alpha  occ. eigenvalues --   -0.51537  -0.51058  -0.50882  -0.49854  -0.49589
 Alpha  occ. eigenvalues --   -0.49158  -0.48814  -0.48202  -0.48115  -0.48062
 Alpha  occ. eigenvalues --   -0.47641  -0.47441  -0.46898  -0.46459  -0.46097
 Alpha  occ. eigenvalues --   -0.44901  -0.44702  -0.44112  -0.43881  -0.43252
 Alpha  occ. eigenvalues --   -0.42472  -0.42099  -0.41476  -0.41389  -0.41158
 Alpha  occ. eigenvalues --   -0.40885  -0.40458  -0.40006  -0.39837  -0.39410
 Alpha  occ. eigenvalues --   -0.39256  -0.39051  -0.38456  -0.37908  -0.37583
 Alpha  occ. eigenvalues --   -0.37374  -0.36729  -0.36575  -0.35699  -0.34885
 Alpha  occ. eigenvalues --   -0.34369  -0.33915  -0.31705  -0.31027  -0.29749
 Alpha  occ. eigenvalues --   -0.28887  -0.28586  -0.27610  -0.24951  -0.24491
 Alpha virt. eigenvalues --   -0.01477   0.00443   0.03581   0.03788   0.10163
 Alpha virt. eigenvalues --    0.11039   0.11635   0.12136   0.13205   0.13546
 Alpha virt. eigenvalues --    0.14198   0.14659   0.14781   0.15279   0.15600

 Mulliken charges:
               1
     1  C   -0.306159
     2  C   -0.306978
     3  C   -0.309767
     4  C   -0.059610
     5  C    0.057190
     6  C   -0.311857
     7  H    0.173786
     8  H    0.162769
     9  H    0.165274
    10  H    0.150935
    11  H    0.163053
    12  H    0.208619
    13  H    0.172690
    14  H    0.193160
    15  H    0.163504
    16  H    0.153957
    17  N   -0.431220
    18  C    0.068553
    19  C    0.063768
    20  C   -0.203490
    21  H    0.206796
    22  C   -0.208897
    23  H    0.245724
    24  C    0.447842
    25  H    0.191378
    26  H    0.211687
    27  N   -0.527414
    28  C   -0.173230
    29  H    0.169829
    30  H    0.233102
    31  C   -0.154282
    32  H    0.167228
    33  H    0.202569
    34  N   -0.816874
    35  S    1.253915
    36  O   -0.612224
    37  O   -0.608295
    38  C    0.087964
    39  C   -0.180619
    40  C   -0.189263
    41  C   -0.170742
    42  C   -0.163676
    43  C   -0.212191
    44  H    0.206595
    45  H    0.140901
    46  H    0.154767
    47  H    0.158505
    48  H    0.152455
    49  O   -0.548690
    50  H    0.449409
    51  C    0.726835
    52  O   -0.723889
    53  O   -0.718151
    54  H    0.445565
    55  C   -0.338264
    56  H    0.149736
    57  H    0.150107
    58  C   -0.093279
    59  H    0.140927
    60  H    0.147168
    61  C   -0.662961
    62  H    0.271965
    63  H    0.196270
    64  H    0.217394
    65  C   -0.294945
    66  H    0.139843
    67  H    0.146796
    68  C   -0.474696
    69  H    0.149316
    70  H    0.155567
    71  H    0.143859
    72  C   -0.331783
    73  H    0.187517
    74  H    0.163325
    75  C   -0.343689
    76  H    0.195552
    77  H    0.171466
 Sum of Mulliken charges =  -0.00000

 Dipole moment (field-independent basis, Debye):
    X=             -2.3229    Y=             -1.8418    Z=             -6.4392  Tot=              7.0888
 Quadrupole moment (field-independent basis, Debye-Ang):
   XX=           -205.2351   YY=           -223.2069   ZZ=           -219.7480
   XY=            -12.1596   XZ=             -5.3801   YZ=             10.0254

 Normal termination of Gaussian 16 at Thu Feb  7 16:06:43 2019.
