 Gaussian 16, Revision A.03,
 Gaussian 16:  ES64L-G16RevA.03 25-Dec-2016

 ------------------------------------------
 #p M062X/6-31G* em=gd3 force int=ultrafine
 ------------------------------------------

 -----
 Title
 -----
 Symbolic Z-matrix:
 Charge =  0 Multiplicity = 1

                         Standard orientation:
 ---------------------------------------------------------------------
 Center     Atomic      Atomic             Coordinates (Angstroms)
 Number     Number       Type             X           Y           Z
 ---------------------------------------------------------------------
      1          6           0       -4.862953    0.028041   -0.411777
      2          6           0       -4.881761   -1.244134   -1.264707
      3          6           0       -3.496319   -1.522285   -1.860077
      4          6           0       -2.491220   -1.652366   -0.720469
      5          6           0       -2.413630   -0.340943    0.110556
      6          6           0       -3.805007   -0.049652    0.692956
      7          1           0       -3.502244   -2.431575   -2.471998
      8          1           0       -5.185553   -2.098350   -0.645412
      9          1           0       -5.617133   -1.155978   -2.071130
     10          1           0       -4.636569    0.887153   -1.058848
     11          1           0       -5.853760    0.203978    0.020624
     12          1           0       -2.794208   -2.468961   -0.060003
     13          1           0       -2.208867    0.452170   -0.623521
     14          1           0       -4.063798   -0.832626    1.417084
     15          1           0       -3.748293    0.902888    1.234082
     16          1           0       -3.228893   -0.678465   -2.511220
     17          7           0       -1.120211   -1.990814   -1.167412
     18          6           0       -0.516845   -1.278523   -2.146297
     19          6           0       -0.357413   -2.754570   -0.350220
     20          6           0        0.836271   -1.292277   -2.327774
     21          1           0       -1.166326   -0.672424   -2.764725
     22          6           0        1.001739   -2.816353   -0.467570
     23          1           0       -0.886787   -3.273039    0.441968
     24          6           0        1.665342   -2.005422   -1.418803
     25          1           0        1.261251   -0.706335   -3.132066
     26          1           0        1.545768   -3.404764    0.257946
     27          7           0        3.001021   -1.903576   -1.444594
     28          6           0        3.812943   -2.433132   -0.342598
     29          1           0        3.758471   -3.525431   -0.311148
     30          1           0        3.435086   -2.028122    0.606715
     31          6           0        3.685487   -0.804516   -2.141837
     32          1           0        3.934985   -1.104196   -3.167243
     33          1           0        3.040311    0.077655   -2.161932
     34          7           0       -1.292320   -0.298576    1.027720
     35         16           0       -1.252338   -1.263608    2.276898
     36          8           0       -2.231871   -2.371495    2.220088
     37          8           0        0.149320   -1.703911    2.517319
     38          6           0       -1.226960    2.834302   -0.176045
     39          6           0       -0.441310    2.208270   -1.148372
     40          6           0       -0.912321    2.092919   -2.455052
     41          6           0       -2.177823    2.566418   -2.799910
     42          6           0       -2.970054    3.174458   -1.827477
     43          6           0       -2.491575    3.309178   -0.526537
     44          1           0        0.513756    1.771870   -0.861856
     45          1           0       -0.287300    1.622415   -3.210923
     46          1           0       -2.544678    2.466176   -3.817204
     47          1           0       -3.961155    3.540479   -2.079955
     48          1           0       -3.113794    3.776672    0.234133
     49          8           0        0.173867    1.962070    1.607598
     50          1           0       -0.270174    1.099923    1.363436
     51          6           0        2.430925    0.668316    1.275688
     52          8           0        2.156881    0.220272    0.174868
     53          8           0        2.150618    0.053765    2.411618
     54          1           0        1.482961   -0.674797    2.273687
     55          6           0        3.182988    1.961282    1.487452
     56          1           0        2.724909    2.465607    2.342723
     57          1           0        4.212885    1.708775    1.779424
     58          6           0       -0.724485    2.970915    1.247563
     59          1           0       -1.593001    3.008372    1.926405
     60          1           0       -0.195552    3.927746    1.358408
     61          6           0       -1.653291   -0.273397    3.713830
     62          1           0       -0.964385    0.574587    3.721825
     63          1           0       -2.685282    0.068853    3.614461
     64          1           0       -1.532087   -0.884151    4.609585
     65          6           0        3.170204    2.851648    0.252125
     66          1           0        3.585034    2.301046   -0.601000
     67          1           0        2.126942    3.069932   -0.000915
     68          6           0        3.940817    4.150397    0.468205
     69          1           0        3.921484    4.778623   -0.427113
     70          1           0        3.508068    4.727714    1.291946
     71          1           0        4.989203    3.952615    0.717634
     72          6           0        5.215001   -1.916453   -0.653350
     73          1           0        5.833329   -1.850596    0.244049
     74          1           0        5.712379   -2.581810   -1.366731
     75          6           0        4.935131   -0.554533   -1.293427
     76          1           0        4.687053    0.174909   -0.516570
     77          1           0        5.770134   -0.171182   -1.883395
 ---------------------------------------------------------------------

 SCF Done:  E(RM062X) =  -1991.39058969     A.U. after   15 cycles

 The electronic state is 1-A.
 Alpha  occ. eigenvalues --  -90.10402 -19.63405 -19.60124 -19.59351 -19.58636
 Alpha  occ. eigenvalues --  -19.58381 -14.84820 -14.80540 -14.69444 -10.65451
 Alpha  occ. eigenvalues --  -10.63247 -10.62379 -10.61536 -10.59167 -10.59145
 Alpha  occ. eigenvalues --  -10.59018 -10.57813 -10.57421 -10.56861 -10.56649
 Alpha  occ. eigenvalues --  -10.56095 -10.55784 -10.55482 -10.54966 -10.54920
 Alpha  occ. eigenvalues --  -10.54856 -10.54571 -10.54533 -10.54487 -10.53805
 Alpha  occ. eigenvalues --  -10.53730 -10.53558 -10.53116 -10.52909 -10.52650
 Alpha  occ. eigenvalues --  -10.52489  -8.41369  -6.33607  -6.33514  -6.33434
 Alpha  occ. eigenvalues --   -1.19142  -1.17941  -1.12953  -1.10391  -1.09859
 Alpha  occ. eigenvalues --   -1.09187  -1.06208  -0.97568  -0.95245  -0.94838
 Alpha  occ. eigenvalues --   -0.92196  -0.89862  -0.88607  -0.87978  -0.85023
 Alpha  occ. eigenvalues --   -0.84971  -0.83651  -0.83507  -0.83302  -0.80228
 Alpha  occ. eigenvalues --   -0.79076  -0.76374  -0.75674  -0.74670  -0.70952
 Alpha  occ. eigenvalues --   -0.70198  -0.69032  -0.68751  -0.68372  -0.67981
 Alpha  occ. eigenvalues --   -0.65721  -0.64725  -0.63964  -0.63438  -0.61665
 Alpha  occ. eigenvalues --   -0.60287  -0.59412  -0.58942  -0.58377  -0.56178
 Alpha  occ. eigenvalues --   -0.55493  -0.55159  -0.55071  -0.54004  -0.53661
 Alpha  occ. eigenvalues --   -0.53434  -0.53086  -0.52324  -0.51985  -0.51732
 Alpha  occ. eigenvalues --   -0.51179  -0.51020  -0.50613  -0.50277  -0.49833
 Alpha  occ. eigenvalues --   -0.49633  -0.49418  -0.48856  -0.48376  -0.48020
 Alpha  occ. eigenvalues --   -0.47761  -0.47172  -0.46967  -0.46862  -0.45956
 Alpha  occ. eigenvalues --   -0.45889  -0.45257  -0.43974  -0.43653  -0.43426
 Alpha  occ. eigenvalues --   -0.42758  -0.42430  -0.42288  -0.41925  -0.41857
 Alpha  occ. eigenvalues --   -0.41163  -0.40816  -0.40610  -0.39930  -0.39518
 Alpha  occ. eigenvalues --   -0.39380  -0.39172  -0.38693  -0.38375  -0.37777
 Alpha  occ. eigenvalues --   -0.37394  -0.36296  -0.35945  -0.35391  -0.35109
 Alpha  occ. eigenvalues --   -0.34428  -0.33168  -0.32134  -0.31686  -0.31518
 Alpha  occ. eigenvalues --   -0.29824  -0.28879  -0.28328  -0.27573  -0.25461
 Alpha virt. eigenvalues --   -0.01023   0.00643   0.03347   0.03829   0.09085
 Alpha virt. eigenvalues --    0.10105   0.10965   0.11717   0.13008   0.13386
 Alpha virt. eigenvalues --    0.13780   0.14176   0.15253   0.15562   0.15730

 Mulliken charges:
               1
     1  C   -0.304008
     2  C   -0.304221
     3  C   -0.309842
     4  C   -0.073580
     5  C    0.061812
     6  C   -0.305455
     7  H    0.165748
     8  H    0.160897
     9  H    0.159224
    10  H    0.146857
    11  H    0.156622
    12  H    0.213276
    13  H    0.141297
    14  H    0.180216
    15  H    0.148263
    16  H    0.151597
    17  N   -0.424736
    18  C    0.100715
    19  C    0.084721
    20  C   -0.228191
    21  H    0.205965
    22  C   -0.227307
    23  H    0.263943
    24  C    0.428811
    25  H    0.188314
    26  H    0.206650
    27  N   -0.529862
    28  C   -0.156311
    29  H    0.178446
    30  H    0.198755
    31  C   -0.147477
    32  H    0.169470
    33  H    0.196740
    34  N   -0.754764
    35  S    1.248681
    36  O   -0.646991
    37  O   -0.671131
    38  C    0.048742
    39  C   -0.176993
    40  C   -0.187005
    41  C   -0.170252
    42  C   -0.162722
    43  C   -0.196995
    44  H    0.200153
    45  H    0.140011
    46  H    0.156519
    47  H    0.161729
    48  H    0.155976
    49  O   -0.708539
    50  H    0.479505
    51  C    0.641169
    52  O   -0.523995
    53  O   -0.642866
    54  H    0.485495
    55  C   -0.366378
    56  H    0.199280
    57  H    0.163869
    58  C   -0.070392
    59  H    0.129388
    60  H    0.162637
    61  C   -0.654956
    62  H    0.217688
    63  H    0.188267
    64  H    0.208352
    65  C   -0.286793
    66  H    0.142733
    67  H    0.169809
    68  C   -0.480567
    69  H    0.158148
    70  H    0.158874
    71  H    0.149222
    72  C   -0.337536
    73  H    0.183773
    74  H    0.170120
    75  C   -0.335552
    76  H    0.183495
    77  H    0.173447
 Sum of Mulliken charges =  -0.00000

 Dipole moment (field-independent basis, Debye):
    X=              1.5960    Y=             -0.4204    Z=             -6.4731  Tot=              6.6803
 Quadrupole moment (field-independent basis, Debye-Ang):
   XX=           -197.4914   YY=           -224.0627   ZZ=           -221.3739
   XY=            -12.2847   XZ=             -1.6918   YZ=             12.1691

 Normal termination of Gaussian 16 at Fri Feb  8 01:45:54 2019.
