 Gaussian 16, Revision A.03,
 Gaussian 16:  ES64L-G16RevA.03 25-Dec-2016

 ------------------------------------------
 #p M062X/6-31G* em=gd3 force int=ultrafine
 ------------------------------------------

 -----
 Title
 -----
 Symbolic Z-matrix:
 Charge =  0 Multiplicity = 1

                         Standard orientation:
 ---------------------------------------------------------------------
 Center     Atomic      Atomic             Coordinates (Angstroms)
 Number     Number       Type             X           Y           Z
 ---------------------------------------------------------------------
      1          6           0       -4.859243    0.486896   -0.549273
      2          6           0       -5.038340   -0.824131   -1.320671
      3          6           0       -3.703166   -1.300388   -1.905202
      4          6           0       -2.701179   -1.482420   -0.769872
      5          6           0       -2.488636   -0.150753   -0.009376
      6          6           0       -3.818329    0.346832    0.565631
      7          1           0       -3.820252   -2.237564   -2.459611
      8          1           0       -5.435256   -1.596174   -0.648489
      9          1           0       -5.767003   -0.697424   -2.127444
     10          1           0       -4.533313    1.271603   -1.245428
     11          1           0       -5.816755    0.808495   -0.127113
     12          1           0       -3.082665   -2.229297   -0.066153
     13          1           0       -2.156229    0.588592   -0.749326
     14          1           0       -4.174514   -0.352165    1.329655
     15          1           0       -3.638543    1.314658    1.046656
     16          1           0       -3.344831   -0.536284   -2.608063
     17          7           0       -1.375103   -1.972027   -1.200673
     18          6           0       -0.692312   -1.331610   -2.187549
     19          6           0       -0.679670   -2.757458   -0.335855
     20          6           0        0.658995   -1.423624   -2.315082
     21          1           0       -1.283010   -0.713459   -2.851665
     22          6           0        0.673404   -2.884996   -0.389172
     23          1           0       -1.264613   -3.229538    0.445898
     24          6           0        1.419363   -2.125664   -1.332027
     25          1           0        1.145969   -0.886065   -3.117686
     26          1           0        1.159691   -3.473123    0.376037
     27          7           0        2.745568   -2.081171   -1.297977
     28          6           0        3.485126   -2.559470   -0.119149
     29          1           0        3.345073   -3.635926    0.014240
     30          1           0        3.115473   -2.008828    0.757838
     31          6           0        3.505388   -1.045736   -2.017601
     32          1           0        3.759020   -1.400526   -3.024410
     33          1           0        2.903832   -0.135071   -2.068749
     34          7           0       -1.388570   -0.215480    0.939042
     35         16           0       -1.395401   -1.053107    2.343673
     36          8           0       -2.632516   -1.836566    2.375601
     37          8           0       -0.124154   -1.763761    2.483626
     38          6           0       -0.525440    2.646220   -0.090682
     39          6           0       -0.050380    2.063570   -1.274832
     40          6           0       -0.804667    2.129550   -2.446069
     41          6           0       -2.046019    2.764885   -2.464250
     42          6           0       -2.528923    3.342364   -1.291851
     43          6           0       -1.770951    3.281770   -0.122521
     44          1           0        0.887378    1.513981   -1.235070
     45          1           0       -0.411904    1.684950   -3.358597
     46          1           0       -2.626409    2.817043   -3.381329
     47          1           0       -3.492901    3.843749   -1.287552
     48          1           0       -2.156164    3.740724    0.785971
     49          8           0        0.736424    1.453909    1.733241
     50          1           0       -0.445644    0.101664    0.661862
     51          6           0        1.993417    0.784101    1.183724
     52          8           0        1.731336    0.188617    0.055948
     53          8           0        2.295770   -0.095768    2.252772
     54          1           0        1.589321   -0.766035    2.228806
     55          6           0        3.136473    1.826431    1.192857
     56          1           0        2.977498    2.530871    2.019731
     57          1           0        4.052228    1.275999    1.444109
     58          6           0        0.279437    2.669580    1.210849
     59          1           0       -0.377715    3.100721    1.979562
     60          1           0        1.110486    3.380592    1.092763
     61          6           0       -1.429144    0.183770    3.619222
     62          1           0       -0.538869    0.799773    3.460764
     63          1           0       -2.348107    0.762224    3.512401
     64          1           0       -1.399781   -0.331650    4.580747
     65          6           0        3.358990    2.575760   -0.118728
     66          1           0        3.599489    1.852685   -0.907030
     67          1           0        2.440156    3.071230   -0.452694
     68          6           0        4.474784    3.611895    0.006293
     69          1           0        4.658832    4.130911   -0.939513
     70          1           0        4.220569    4.367279    0.758478
     71          1           0        5.412764    3.141298    0.322044
     72          6           0        4.925488   -2.177782   -0.438856
     73          1           0        5.537052   -2.109478    0.462599
     74          1           0        5.375627   -2.915762   -1.112441
     75          6           0        4.743423   -0.833025   -1.143822
     76          1           0        4.501329   -0.070669   -0.397952
     77          1           0        5.613612   -0.514420   -1.721674
 ---------------------------------------------------------------------

 SCF Done:  E(RM062X) =  -1991.35633293     A.U. after   15 cycles

 The electronic state is 1-A.
 Alpha  occ. eigenvalues --  -90.14759 -19.62330 -19.62185 -19.58511 -19.56660
 Alpha  occ. eigenvalues --  -19.50492 -14.85287 -14.80190 -14.76787 -10.63278
 Alpha  occ. eigenvalues --  -10.62726 -10.62226 -10.61947 -10.61067 -10.59832
 Alpha  occ. eigenvalues --  -10.57972 -10.57879 -10.57725 -10.57106 -10.56939
 Alpha  occ. eigenvalues --  -10.56900 -10.56117 -10.55873 -10.55070 -10.54982
 Alpha  occ. eigenvalues --  -10.54891 -10.54789 -10.54732 -10.54651 -10.54520
 Alpha  occ. eigenvalues --  -10.54404 -10.54298 -10.52975 -10.51131 -10.51048
 Alpha  occ. eigenvalues --  -10.49409  -8.45729  -6.37956  -6.37915  -6.37766
 Alpha  occ. eigenvalues --   -1.22544  -1.13594  -1.13027  -1.10782  -1.09061
 Alpha  occ. eigenvalues --   -1.05715  -1.02454  -0.99251  -0.95892  -0.95085
 Alpha  occ. eigenvalues --   -0.93553  -0.90256  -0.88678  -0.86430  -0.85343
 Alpha  occ. eigenvalues --   -0.84898  -0.84839  -0.83876  -0.83153  -0.83057
 Alpha  occ. eigenvalues --   -0.76666  -0.75926  -0.75682  -0.74242  -0.73222
 Alpha  occ. eigenvalues --   -0.71808  -0.68237  -0.68157  -0.67826  -0.67506
 Alpha  occ. eigenvalues --   -0.66512  -0.65465  -0.64799  -0.63459  -0.60495
 Alpha  occ. eigenvalues --   -0.60312  -0.59840  -0.59549  -0.57830  -0.57683
 Alpha  occ. eigenvalues --   -0.57276  -0.56490  -0.55809  -0.55130  -0.54326
 Alpha  occ. eigenvalues --   -0.53613  -0.53016  -0.52679  -0.52470  -0.52042
 Alpha  occ. eigenvalues --   -0.51674  -0.50848  -0.50290  -0.49926  -0.49346
 Alpha  occ. eigenvalues --   -0.49167  -0.49000  -0.48344  -0.48127  -0.47906
 Alpha  occ. eigenvalues --   -0.47746  -0.47600  -0.47144  -0.46187  -0.45900
 Alpha  occ. eigenvalues --   -0.45136  -0.44895  -0.44323  -0.43829  -0.43264
 Alpha  occ. eigenvalues --   -0.42570  -0.42242  -0.41135  -0.41043  -0.40905
 Alpha  occ. eigenvalues --   -0.40698  -0.40510  -0.39968  -0.39841  -0.39333
 Alpha  occ. eigenvalues --   -0.39209  -0.38992  -0.38454  -0.38322  -0.37860
 Alpha  occ. eigenvalues --   -0.37286  -0.36557  -0.36399  -0.36068  -0.34976
 Alpha  occ. eigenvalues --   -0.34446  -0.34201  -0.31871  -0.31248  -0.29882
 Alpha  occ. eigenvalues --   -0.28986  -0.28694  -0.27751  -0.24045  -0.23899
 Alpha virt. eigenvalues --   -0.01360   0.00443   0.03361   0.03659   0.10125
 Alpha virt. eigenvalues --    0.10632   0.11370   0.12491   0.13180   0.13243
 Alpha virt. eigenvalues --    0.14114   0.14384   0.14815   0.15412   0.15562

 Mulliken charges:
               1
     1  C   -0.306401
     2  C   -0.307715
     3  C   -0.310513
     4  C   -0.058742
     5  C    0.057948
     6  C   -0.308671
     7  H    0.175371
     8  H    0.163147
     9  H    0.166784
    10  H    0.151018
    11  H    0.165005
    12  H    0.206883
    13  H    0.175801
    14  H    0.194496
    15  H    0.163131
    16  H    0.156089
    17  N   -0.436623
    18  C    0.073538
    19  C    0.070853
    20  C   -0.205363
    21  H    0.204532
    22  C   -0.214762
    23  H    0.243256
    24  C    0.449211
    25  H    0.192487
    26  H    0.210587
    27  N   -0.520808
    28  C   -0.168024
    29  H    0.167563
    30  H    0.224876
    31  C   -0.148790
    32  H    0.161640
    33  H    0.206019
    34  N   -0.799567
    35  S    1.244782
    36  O   -0.604150
    37  O   -0.594733
    38  C    0.062762
    39  C   -0.195178
    40  C   -0.191531
    41  C   -0.172574
    42  C   -0.165268
    43  C   -0.207370
    44  H    0.227429
    45  H    0.140795
    46  H    0.155411
    47  H    0.158921
    48  H    0.152797
    49  O   -0.573309
    50  H    0.438932
    51  C    0.719059
    52  O   -0.710744
    53  O   -0.710503
    54  H    0.434024
    55  C   -0.339623
    56  H    0.144312
    57  H    0.149886
    58  C   -0.083826
    59  H    0.134354
    60  H    0.152502
    61  C   -0.664663
    62  H    0.274462
    63  H    0.199324
    64  H    0.220863
    65  C   -0.286520
    66  H    0.137937
    67  H    0.141881
    68  C   -0.474109
    69  H    0.147823
    70  H    0.150724
    71  H    0.147570
    72  C   -0.333486
    73  H    0.185650
    74  H    0.160657
    75  C   -0.340092
    76  H    0.203250
    77  H    0.167320
 Sum of Mulliken charges =  -0.00000

 Dipole moment (field-independent basis, Debye):
    X=             -3.4631    Y=             -2.0345    Z=             -5.8886  Tot=              7.1280
 Quadrupole moment (field-independent basis, Debye-Ang):
   XX=           -207.9808   YY=           -221.7187   ZZ=           -219.2793
   XY=            -13.0947   XZ=             -4.3684   YZ=             10.4872

 Normal termination of Gaussian 16 at Thu Feb  7 11:35:22 2019.
