 Gaussian 16, Revision A.03,
 Gaussian 16:  ES64L-G16RevA.03 25-Dec-2016

 ------------------------------------------
 #p M062X/6-31G* em=gd3 force int=ultrafine
 ------------------------------------------

 -----
 Title
 -----
 Symbolic Z-matrix:
 Charge =  0 Multiplicity = 1

                         Standard orientation:
 ---------------------------------------------------------------------
 Center     Atomic      Atomic             Coordinates (Angstroms)
 Number     Number       Type             X           Y           Z
 ---------------------------------------------------------------------
      1          6           0       -4.795201    0.457817   -0.516309
      2          6           0       -5.002168   -0.844844   -1.294939
      3          6           0       -3.685236   -1.323582   -1.918283
      4          6           0       -2.661362   -1.520395   -0.806334
      5          6           0       -2.412017   -0.195577   -0.041003
      6          6           0       -3.725176    0.305732    0.569695
      7          1           0       -3.822647   -2.256331   -2.475596
      8          1           0       -5.385032   -1.621484   -0.619864
      9          1           0       -5.751625   -0.706330   -2.080468
     10          1           0       -4.486570    1.246847   -1.214709
     11          1           0       -5.739385    0.779149   -0.064706
     12          1           0       -3.035714   -2.266169   -0.098348
     13          1           0       -2.093547    0.546545   -0.784244
     14          1           0       -4.067207   -0.397323    1.336427
     15          1           0       -3.530176    1.269613    1.051978
     16          1           0       -3.339301   -0.557154   -2.624949
     17          7           0       -1.346108   -2.017750   -1.261288
     18          6           0       -0.664613   -1.345867   -2.227714
     19          6           0       -0.646933   -2.808531   -0.404118
     20          6           0        0.690039   -1.405519   -2.336167
     21          1           0       -1.260057   -0.726109   -2.886754
     22          6           0        0.709450   -2.906175   -0.439296
     23          1           0       -1.232738   -3.302886    0.363322
     24          6           0        1.448657   -2.102487   -1.348268
     25          1           0        1.177302   -0.842373   -3.120649
     26          1           0        1.198207   -3.495683    0.323274
     27          7           0        2.771421   -2.007331   -1.281105
     28          6           0        3.510344   -2.471365   -0.097160
     29          1           0        3.387257   -3.549558    0.036998
     30          1           0        3.126188   -1.927871    0.778572
     31          6           0        3.500171   -0.936990   -1.977490
     32          1           0        3.739686   -1.250866   -3.000934
     33          1           0        2.874925   -0.040191   -1.992150
     34          7           0       -1.287512   -0.285452    0.877834
     35         16           0       -1.328327   -1.119062    2.280466
     36          8           0       -2.545092   -1.936798    2.289284
     37          8           0       -0.045566   -1.803711    2.458017
     38          6           0       -0.570572    2.672080   -0.015637
     39          6           0       -0.098253    2.156834   -1.233132
     40          6           0       -0.875437    2.235709   -2.387393
     41          6           0       -2.141438    2.820851   -2.359794
     42          6           0       -2.623522    3.331680   -1.157726
     43          6           0       -1.840344    3.257298   -0.005526
     44          1           0        0.856486    1.642265   -1.241724
     45          1           0       -0.481666    1.841897   -3.322303
     46          1           0       -2.740704    2.884620   -3.263884
     47          1           0       -3.606300    3.793210   -1.115137
     48          1           0       -2.225529    3.669086    0.925333
     49          8           0        0.725997    1.542734    1.852898
     50          1           0       -0.313634   -0.047736    0.556985
     51          6           0        1.882968    0.815574    1.233272
     52          8           0        1.499804    0.203582    0.134550
     53          8           0        2.251447   -0.061830    2.281784
     54          1           0        1.557471   -0.745588    2.293569
     55          6           0        3.075979    1.800111    1.131797
     56          1           0        3.005766    2.516718    1.960345
     57          1           0        3.977400    1.208044    1.333423
     58          6           0        0.259647    2.728095    1.271320
     59          1           0       -0.380725    3.191440    2.033535
     60          1           0        1.090953    3.430826    1.110188
     61          6           0       -1.439447    0.109023    3.560627
     62          1           0       -0.558777    0.746985    3.445052
     63          1           0       -2.363784    0.670483    3.413823
     64          1           0       -1.446990   -0.411928    4.519476
     65          6           0        3.260478    2.537427   -0.191671
     66          1           0        3.390512    1.806435   -0.999683
     67          1           0        2.364601    3.109735   -0.458150
     68          6           0        4.459650    3.483028   -0.141343
     69          1           0        4.613965    3.998066   -1.094506
     70          1           0        4.315712    4.245060    0.631668
     71          1           0        5.378468    2.939648    0.104143
     72          6           0        4.946009   -2.071081   -0.416478
     73          1           0        5.558422   -1.996604    0.483852
     74          1           0        5.402534   -2.804035   -1.090935
     75          6           0        4.753315   -0.727306   -1.122461
     76          1           0        4.537498    0.040765   -0.375151
     77          1           0        5.614722   -0.413575   -1.715735
 ---------------------------------------------------------------------

 SCF Done:  E(RM062X) =  -1991.35805006     A.U. after   14 cycles

 The electronic state is 1-A.
 Alpha  occ. eigenvalues --  -90.14286 -19.61879 -19.61845 -19.58614 -19.56665
 Alpha  occ. eigenvalues --  -19.51107 -14.85209 -14.80420 -14.75998 -10.63415
 Alpha  occ. eigenvalues --  -10.62788 -10.62240 -10.62164 -10.60794 -10.59450
 Alpha  occ. eigenvalues --  -10.58348 -10.58000 -10.57969 -10.57184 -10.56896
 Alpha  occ. eigenvalues --  -10.56730 -10.55698 -10.55652 -10.55083 -10.54863
 Alpha  occ. eigenvalues --  -10.54847 -10.54749 -10.54748 -10.54598 -10.54417
 Alpha  occ. eigenvalues --  -10.54381 -10.54340 -10.53044 -10.51428 -10.51389
 Alpha  occ. eigenvalues --  -10.49618  -8.45262  -6.37481  -6.37455  -6.37298
 Alpha  occ. eigenvalues --   -1.22104  -1.13603  -1.13416  -1.10357  -1.09324
 Alpha  occ. eigenvalues --   -1.05826  -1.01868  -0.99255  -0.95787  -0.95003
 Alpha  occ. eigenvalues --   -0.93524  -0.90319  -0.88761  -0.85989  -0.85696
 Alpha  occ. eigenvalues --   -0.84831  -0.84740  -0.84186  -0.83065  -0.82760
 Alpha  occ. eigenvalues --   -0.76684  -0.76210  -0.75822  -0.74322  -0.72864
 Alpha  occ. eigenvalues --   -0.71696  -0.68326  -0.68200  -0.67938  -0.67265
 Alpha  occ. eigenvalues --   -0.66717  -0.65258  -0.64857  -0.63533  -0.60532
 Alpha  occ. eigenvalues --   -0.60402  -0.59759  -0.59164  -0.57797  -0.57631
 Alpha  occ. eigenvalues --   -0.57215  -0.56453  -0.55807  -0.55161  -0.54217
 Alpha  occ. eigenvalues --   -0.53583  -0.52691  -0.52510  -0.52488  -0.51914
 Alpha  occ. eigenvalues --   -0.51562  -0.50988  -0.50644  -0.49900  -0.49500
 Alpha  occ. eigenvalues --   -0.49162  -0.48872  -0.48211  -0.48136  -0.47961
 Alpha  occ. eigenvalues --   -0.47709  -0.47491  -0.46945  -0.46399  -0.46097
 Alpha  occ. eigenvalues --   -0.44910  -0.44741  -0.44184  -0.43849  -0.43271
 Alpha  occ. eigenvalues --   -0.42552  -0.42166  -0.41359  -0.41271  -0.41067
 Alpha  occ. eigenvalues --   -0.40901  -0.40516  -0.39990  -0.39778  -0.39257
 Alpha  occ. eigenvalues --   -0.39240  -0.39089  -0.38423  -0.38028  -0.37637
 Alpha  occ. eigenvalues --   -0.37376  -0.36741  -0.36529  -0.35803  -0.34924
 Alpha  occ. eigenvalues --   -0.34396  -0.34017  -0.31676  -0.31167  -0.29784
 Alpha  occ. eigenvalues --   -0.28867  -0.28607  -0.27679  -0.24690  -0.24298
 Alpha virt. eigenvalues --   -0.01524   0.00386   0.03527   0.03733   0.10124
 Alpha virt. eigenvalues --    0.10923   0.11619   0.12263   0.13150   0.13457
 Alpha virt. eigenvalues --    0.14226   0.14503   0.14753   0.15227   0.15597

 Mulliken charges:
               1
     1  C   -0.306296
     2  C   -0.307249
     3  C   -0.309147
     4  C   -0.060268
     5  C    0.055999
     6  C   -0.311033
     7  H    0.174239
     8  H    0.162974
     9  H    0.165737
    10  H    0.150804
    11  H    0.163709
    12  H    0.209015
    13  H    0.173554
    14  H    0.193803
    15  H    0.163478
    16  H    0.154567
    17  N   -0.431128
    18  C    0.067550
    19  C    0.064642
    20  C   -0.201441
    21  H    0.206143
    22  C   -0.209737
    23  H    0.244663
    24  C    0.446042
    25  H    0.192296
    26  H    0.211398
    27  N   -0.525360
    28  C   -0.170026
    29  H    0.169633
    30  H    0.227861
    31  C   -0.154439
    32  H    0.164654
    33  H    0.207085
    34  N   -0.813521
    35  S    1.251861
    36  O   -0.610543
    37  O   -0.604606
    38  C    0.081802
    39  C   -0.186357
    40  C   -0.190112
    41  C   -0.171721
    42  C   -0.163853
    43  C   -0.211702
    44  H    0.214754
    45  H    0.140383
    46  H    0.154957
    47  H    0.158583
    48  H    0.152401
    49  O   -0.552996
    50  H    0.447238
    51  C    0.722591
    52  O   -0.720360
    53  O   -0.717554
    54  H    0.443059
    55  C   -0.338198
    56  H    0.148087
    57  H    0.151199
    58  C   -0.089547
    59  H    0.138973
    60  H    0.148080
    61  C   -0.663523
    62  H    0.275165
    63  H    0.196538
    64  H    0.217876
    65  C   -0.291134
    66  H    0.133745
    67  H    0.145592
    68  C   -0.473223
    69  H    0.148691
    70  H    0.153793
    71  H    0.146178
    72  C   -0.332084
    73  H    0.186748
    74  H    0.162695
    75  C   -0.342750
    76  H    0.198320
    77  H    0.170754
 Sum of Mulliken charges =  -0.00000

 Dipole moment (field-independent basis, Debye):
    X=             -2.7200    Y=             -2.0234    Z=             -6.2809  Tot=              7.1374
 Quadrupole moment (field-independent basis, Debye-Ang):
   XX=           -206.1373   YY=           -222.3170   ZZ=           -220.1223
   XY=            -12.5658   XZ=             -5.0806   YZ=             10.1301

 Normal termination of Gaussian 16 at Thu Feb  7 13:48:50 2019.
