 Gaussian 16, Revision A.03,
 Gaussian 16:  ES64L-G16RevA.03 25-Dec-2016

 ------------------------------------------
 #p M062X/6-31G* em=gd3 force int=ultrafine
 ------------------------------------------

 -----
 Title
 -----
 Symbolic Z-matrix:
 Charge =  0 Multiplicity = 1

                         Standard orientation:
 ---------------------------------------------------------------------
 Center     Atomic      Atomic             Coordinates (Angstroms)
 Number     Number       Type             X           Y           Z
 ---------------------------------------------------------------------
      1          6           0       -4.782518    0.244523   -0.746512
      2          6           0       -4.885922   -1.091203   -1.488684
      3          6           0       -3.515339   -1.525404   -2.021711
      4          6           0       -2.546083   -1.635655   -0.850244
      5          6           0       -2.398940   -0.274243   -0.121342
      6          6           0       -3.768608    0.177536    0.399722
      7          1           0       -3.577286   -2.480735   -2.554039
      8          1           0       -5.269671   -1.862724   -0.808380
      9          1           0       -5.595379   -1.014673   -2.318653
     10          1           0       -4.473198    1.025053   -1.454015
     11          1           0       -5.764025    0.534260   -0.357219
     12          1           0       -2.926021   -2.372186   -0.135300
     13          1           0       -2.075392    0.457006   -0.873645
     14          1           0       -4.119258   -0.521086    1.166271
     15          1           0       -3.649807    1.162402    0.863008
     16          1           0       -3.168385   -0.765024   -2.734268
     17          7           0       -1.189774   -2.091926   -1.217868
     18          6           0       -0.504205   -1.476450   -2.216522
     19          6           0       -0.490442   -2.787304   -0.280631
     20          6           0        0.854354   -1.502416   -2.287691
     21          1           0       -1.099878   -0.937109   -2.942368
     22          6           0        0.868732   -2.830727   -0.266330
     23          1           0       -1.083317   -3.250906    0.500286
     24          6           0        1.605509   -2.081050   -1.221707
     25          1           0        1.343670   -0.995622   -3.108075
     26          1           0        1.355225   -3.336871    0.555570
     27          7           0        2.923400   -1.936642   -1.131668
     28          6           0        3.649286   -2.251741    0.108954
     29          1           0        3.552690   -3.313707    0.351632
     30          1           0        3.229297   -1.636541    0.919109
     31          6           0        3.644045   -0.945510   -1.939061
     32          1           0        3.893951   -1.369916   -2.919294
     33          1           0        3.008297   -0.065568   -2.073364
     34          7           0       -1.322610   -0.277653    0.856753
     35         16           0       -1.419392   -1.051243    2.286284
     36          8           0       -2.597332   -1.924687    2.270869
     37          8           0       -0.123521   -1.672608    2.576133
     38          6           0       -0.672878    2.710945    0.003694
     39          6           0       -0.204688    2.248969   -1.236480
     40          6           0       -1.013972    2.307142   -2.368788
     41          6           0       -2.310683    2.817427   -2.293957
     42          6           0       -2.791682    3.267737   -1.068148
     43          6           0       -1.974073    3.216382    0.061424
     44          1           0        0.776469    1.792885   -1.285820
     45          1           0       -0.624390    1.956591   -3.322041
     46          1           0       -2.936741    2.866858   -3.180714
     47          1           0       -3.799849    3.665222   -0.989049
     48          1           0       -2.356484    3.584030    1.011941
     49          8           0        0.660523    1.634340    1.876837
     50          1           0       -0.323773   -0.039334    0.556461
     51          6           0        1.771293    0.877208    1.233290
     52          8           0        1.336378    0.253004    0.156259
     53          8           0        2.169600    0.013450    2.283524
     54          1           0        1.447218   -0.634867    2.372040
     55          6           0        2.994056    1.818881    1.059946
     56          1           0        2.982892    2.560308    1.868805
     57          1           0        3.873857    1.190749    1.250093
     58          6           0        0.198466    2.804980    1.259057
     59          1           0       -0.404836    3.314214    2.021740
     60          1           0        1.040186    3.478148    1.040059
     61          6           0       -1.657853    0.229126    3.496439
     62          1           0       -0.799489    0.898961    3.398121
     63          1           0       -2.594352    0.741126    3.269475
     64          1           0       -1.698751   -0.242663    4.479123
     65          6           0        3.171162    2.502056   -0.292901
     66          1           0        3.086689    1.746985   -1.082579
     67          1           0        2.367863    3.221148   -0.487764
     68          6           0        4.515557    3.221547   -0.395009
     69          1           0        4.644105    3.705575   -1.368233
     70          1           0        4.604144    3.992448    0.377999
     71          1           0        5.348640    2.523073   -0.253289
     72          6           0        5.083445   -1.855306   -0.226836
     73          1           0        5.668584   -1.647875    0.671004
     74          1           0        5.576651   -2.657553   -0.786346
     75          6           0        4.890732   -0.619623   -1.110348
     76          1           0        4.679217    0.247528   -0.479957
     77          1           0        5.756123   -0.391125   -1.736104
 ---------------------------------------------------------------------

 SCF Done:  E(RM062X) =  -1991.35900075     A.U. after   14 cycles

 The electronic state is 1-A.
 Alpha  occ. eigenvalues --  -90.14016 -19.61630 -19.61625 -19.58824 -19.56755
 Alpha  occ. eigenvalues --  -19.51403 -14.85103 -14.80464 -14.75386 -10.63357
 Alpha  occ. eigenvalues --  -10.62724 -10.62342 -10.62015 -10.60628 -10.59171
 Alpha  occ. eigenvalues --  -10.58805 -10.57867 -10.57863 -10.57017 -10.56846
 Alpha  occ. eigenvalues --  -10.56649 -10.55584 -10.55573 -10.55239 -10.55127
 Alpha  occ. eigenvalues --  -10.54696 -10.54692 -10.54581 -10.54418 -10.54270
 Alpha  occ. eigenvalues --  -10.54191 -10.54128 -10.53078 -10.51714 -10.51603
 Alpha  occ. eigenvalues --  -10.49827  -8.44995  -6.37210  -6.37190  -6.37034
 Alpha  occ. eigenvalues --   -1.21848  -1.13689  -1.13430  -1.10090  -1.09365
 Alpha  occ. eigenvalues --   -1.05907  -1.01543  -0.99443  -0.95653  -0.94872
 Alpha  occ. eigenvalues --   -0.93445  -0.90199  -0.88758  -0.85939  -0.85799
 Alpha  occ. eigenvalues --   -0.84743  -0.84609  -0.84371  -0.82959  -0.82574
 Alpha  occ. eigenvalues --   -0.76627  -0.76387  -0.75825  -0.74379  -0.72676
 Alpha  occ. eigenvalues --   -0.71531  -0.68365  -0.68298  -0.67871  -0.67120
 Alpha  occ. eigenvalues --   -0.66742  -0.65156  -0.64855  -0.63519  -0.60565
 Alpha  occ. eigenvalues --   -0.60404  -0.59790  -0.58776  -0.57866  -0.57514
 Alpha  occ. eigenvalues --   -0.57103  -0.56408  -0.55655  -0.55164  -0.54165
 Alpha  occ. eigenvalues --   -0.53407  -0.52608  -0.52371  -0.52323  -0.51824
 Alpha  occ. eigenvalues --   -0.51500  -0.51108  -0.50951  -0.49834  -0.49584
 Alpha  occ. eigenvalues --   -0.49161  -0.48793  -0.48217  -0.48105  -0.48047
 Alpha  occ. eigenvalues --   -0.47599  -0.47408  -0.46883  -0.46467  -0.46080
 Alpha  occ. eigenvalues --   -0.44941  -0.44624  -0.44042  -0.43859  -0.43239
 Alpha  occ. eigenvalues --   -0.42410  -0.42065  -0.41622  -0.41454  -0.41224
 Alpha  occ. eigenvalues --   -0.40867  -0.40422  -0.40022  -0.39874  -0.39575
 Alpha  occ. eigenvalues --   -0.39223  -0.39031  -0.38397  -0.37845  -0.37574
 Alpha  occ. eigenvalues --   -0.37329  -0.36731  -0.36551  -0.35658  -0.34866
 Alpha  occ. eigenvalues --   -0.34321  -0.33853  -0.31797  -0.30920  -0.29657
 Alpha  occ. eigenvalues --   -0.28875  -0.28483  -0.27518  -0.25003  -0.24540
 Alpha virt. eigenvalues --   -0.01340   0.00548   0.03677   0.03907   0.10272
 Alpha virt. eigenvalues --    0.11076   0.11495   0.12056   0.13215   0.13525
 Alpha virt. eigenvalues --    0.14263   0.14686   0.14863   0.15435   0.15612

 Mulliken charges:
               1
     1  C   -0.306042
     2  C   -0.306797
     3  C   -0.310697
     4  C   -0.058595
     5  C    0.056327
     6  C   -0.311492
     7  H    0.173741
     8  H    0.162971
     9  H    0.164932
    10  H    0.150144
    11  H    0.162797
    12  H    0.208284
    13  H    0.172115
    14  H    0.194111
    15  H    0.163228
    16  H    0.153459
    17  N   -0.433774
    18  C    0.071235
    19  C    0.065889
    20  C   -0.206781
    21  H    0.207267
    22  C   -0.209921
    23  H    0.245862
    24  C    0.453956
    25  H    0.190486
    26  H    0.211742
    27  N   -0.531303
    28  C   -0.178640
    29  H    0.170004
    30  H    0.240418
    31  C   -0.154282
    32  H    0.169104
    33  H    0.199846
    34  N   -0.817471
    35  S    1.254286
    36  O   -0.611157
    37  O   -0.610181
    38  C    0.094199
    39  C   -0.175959
    40  C   -0.188508
    41  C   -0.170156
    42  C   -0.163573
    43  C   -0.211956
    44  H    0.200655
    45  H    0.141963
    46  H    0.154253
    47  H    0.157802
    48  H    0.151466
    49  O   -0.547628
    50  H    0.450028
    51  C    0.729008
    52  O   -0.724341
    53  O   -0.718237
    54  H    0.446033
    55  C   -0.337123
    56  H    0.150688
    57  H    0.146616
    58  C   -0.096401
    59  H    0.141477
    60  H    0.146458
    61  C   -0.662597
    62  H    0.269433
    63  H    0.196360
    64  H    0.217315
    65  C   -0.295831
    66  H    0.142280
    67  H    0.147221
    68  C   -0.476902
    69  H    0.149721
    70  H    0.156553
    71  H    0.144227
    72  C   -0.332047
    73  H    0.187473
    74  H    0.164078
    75  C   -0.344823
    76  H    0.193348
    77  H    0.172357
 Sum of Mulliken charges =  -0.00000

 Dipole moment (field-independent basis, Debye):
    X=             -1.8621    Y=             -2.1018    Z=             -6.4933  Tot=              7.0745
 Quadrupole moment (field-independent basis, Debye-Ang):
   XX=           -204.1849   YY=           -222.9429   ZZ=           -220.2213
   XY=            -12.1104   XZ=             -4.9160   YZ=             10.4452

 Normal termination of Gaussian 16 at Thu Feb  7 18:14:34 2019.
