 Gaussian 16, Revision A.03,
 Gaussian 16:  ES64L-G16RevA.03 25-Dec-2016

 ------------------------------------------
 #p M062X/6-31G* em=gd3 force int=ultrafine
 ------------------------------------------

 -----
 Title
 -----
 Symbolic Z-matrix:
 Charge =  0 Multiplicity = 1

                         Standard orientation:
 ---------------------------------------------------------------------
 Center     Atomic      Atomic             Coordinates (Angstroms)
 Number     Number       Type             X           Y           Z
 ---------------------------------------------------------------------
      1          6           0       -4.784263    0.439966   -0.521791
      2          6           0       -4.984840   -0.851589   -1.320312
      3          6           0       -3.664649   -1.317264   -1.946924
      4          6           0       -2.644394   -1.527347   -0.834231
      5          6           0       -2.399242   -0.211501   -0.051408
      6          6           0       -3.715458    0.276476    0.563677
      7          1           0       -3.797977   -2.242035   -2.518371
      8          1           0       -5.367167   -1.639435   -0.658037
      9          1           0       -5.732540   -0.703471   -2.105762
     10          1           0       -4.477487    1.240433   -1.207691
     11          1           0       -5.730463    0.750929   -0.067104
     12          1           0       -3.020718   -2.282048   -0.136913
     13          1           0       -2.082335    0.541021   -0.784791
     14          1           0       -4.056106   -0.438887    1.319741
     15          1           0       -3.525258    1.234269    1.059703
     16          1           0       -3.318646   -0.539370   -2.640950
     17          7           0       -1.326700   -2.017930   -1.289328
     18          6           0       -0.643396   -1.336959   -2.247804
     19          6           0       -0.628264   -2.811161   -0.433528
     20          6           0        0.712268   -1.388991   -2.348837
     21          1           0       -1.238404   -0.716980   -2.907104
     22          6           0        0.728922   -2.899200   -0.459573
     23          1           0       -1.216361   -3.315281    0.325780
     24          6           0        1.468567   -2.084232   -1.357869
     25          1           0        1.200659   -0.820082   -3.128331
     26          1           0        1.216503   -3.490834    0.302115
     27          7           0        2.789961   -1.977744   -1.278588
     28          6           0        3.522646   -2.429820   -0.085901
     29          1           0        3.407283   -3.508253    0.052883
     30          1           0        3.126429   -1.885309    0.783869
     31          6           0        3.515693   -0.906453   -1.975218
     32          1           0        3.760172   -1.222133   -2.996889
     33          1           0        2.884987   -0.013692   -1.997836
     34          7           0       -1.275748   -0.310598    0.867164
     35         16           0       -1.323513   -1.156313    2.260696
     36          8           0       -2.528053   -1.992425    2.250051
     37          8           0       -0.032986   -1.824131    2.448177
     38          6           0       -0.594212    2.684823    0.023805
     39          6           0       -0.122073    2.192343   -1.203224
     40          6           0       -0.904337    2.281632   -2.353166
     41          6           0       -2.175331    2.855314   -2.311647
     42          6           0       -2.657513    3.342896   -1.100135
     43          6           0       -1.869101    3.258030    0.047804
     44          1           0        0.836828    1.686511   -1.224659
     45          1           0       -0.510987    1.905559   -3.295469
     46          1           0       -2.778697    2.927808   -3.212375
     47          1           0       -3.644244    3.794787   -1.046714
     48          1           0       -2.253874    3.652800    0.986164
     49          8           0        0.711086    1.545697    1.880598
     50          1           0       -0.296641   -0.064771    0.551216
     51          6           0        1.857268    0.822535    1.247373
     52          8           0        1.462022    0.213222    0.149074
     53          8           0        2.239767   -0.059339    2.287277
     54          1           0        1.547755   -0.744886    2.304758
     55          6           0        3.053774    1.803035    1.133337
     56          1           0        2.996501    2.518412    1.962959
     57          1           0        3.952534    1.204277    1.325480
     58          6           0        0.242974    2.734045    1.306069
     59          1           0       -0.391536    3.195511    2.074098
     60          1           0        1.074776    3.435418    1.142274
     61          6           0       -1.468118    0.057685    3.550994
     62          1           0       -0.597689    0.711855    3.449754
     63          1           0       -2.400421    0.604646    3.400130
     64          1           0       -1.476233   -0.471618    4.505254
     65          6           0        3.231170    2.538685   -0.191830
     66          1           0        3.289606    1.806488   -1.005142
     67          1           0        2.361017    3.161815   -0.423190
     68          6           0        4.484342    3.412469   -0.184864
     69          1           0        4.626126    3.929557   -1.138904
     70          1           0        4.422193    4.171670    0.602136
     71          1           0        5.379753    2.811597    0.011570
     72          6           0        4.958217   -2.021278   -0.395799
     73          1           0        5.561170   -1.933570    0.509746
     74          1           0        5.426756   -2.757494   -1.058245
     75          6           0        4.765195   -0.685511   -1.117433
     76          1           0        4.548143    0.091887   -0.380433
     77          1           0        5.628453   -0.378125   -1.711380
 ---------------------------------------------------------------------

 SCF Done:  E(RM062X) =  -1991.35843331     A.U. after   14 cycles

 The electronic state is 1-A.
 Alpha  occ. eigenvalues --  -90.14199 -19.61801 -19.61775 -19.58683 -19.56679
 Alpha  occ. eigenvalues --  -19.51218 -14.85176 -14.80443 -14.75799 -10.63420
 Alpha  occ. eigenvalues --  -10.62787 -10.62223 -10.62204 -10.60738 -10.59367
 Alpha  occ. eigenvalues --  -10.58431 -10.58001 -10.57956 -10.57166 -10.56902
 Alpha  occ. eigenvalues --  -10.56697 -10.55667 -10.55617 -10.55107 -10.54846
 Alpha  occ. eigenvalues --  -10.54816 -10.54800 -10.54731 -10.54580 -10.54407
 Alpha  occ. eigenvalues --  -10.54335 -10.54329 -10.53070 -10.51487 -10.51438
 Alpha  occ. eigenvalues --  -10.49666  -8.45175  -6.37392  -6.37369  -6.37212
 Alpha  occ. eigenvalues --   -1.22021  -1.13595  -1.13493  -1.10278  -1.09344
 Alpha  occ. eigenvalues --   -1.05868  -1.01758  -0.99292  -0.95752  -0.94993
 Alpha  occ. eigenvalues --   -0.93500  -0.90305  -0.88756  -0.85922  -0.85766
 Alpha  occ. eigenvalues --   -0.84828  -0.84716  -0.84225  -0.83059  -0.82709
 Alpha  occ. eigenvalues --   -0.76669  -0.76267  -0.75830  -0.74368  -0.72804
 Alpha  occ. eigenvalues --   -0.71657  -0.68327  -0.68223  -0.67940  -0.67218
 Alpha  occ. eigenvalues --   -0.66743  -0.65236  -0.64870  -0.63527  -0.60554
 Alpha  occ. eigenvalues --   -0.60403  -0.59782  -0.59045  -0.57803  -0.57601
 Alpha  occ. eigenvalues --   -0.57183  -0.56440  -0.55790  -0.55173  -0.54202
 Alpha  occ. eigenvalues --   -0.53556  -0.52664  -0.52471  -0.52447  -0.51909
 Alpha  occ. eigenvalues --   -0.51553  -0.51015  -0.50732  -0.49881  -0.49547
 Alpha  occ. eigenvalues --   -0.49165  -0.48842  -0.48208  -0.48140  -0.48007
 Alpha  occ. eigenvalues --   -0.47680  -0.47470  -0.46916  -0.46427  -0.46103
 Alpha  occ. eigenvalues --   -0.44884  -0.44741  -0.44151  -0.43863  -0.43262
 Alpha  occ. eigenvalues --   -0.42520  -0.42143  -0.41395  -0.41314  -0.41107
 Alpha  occ. eigenvalues --   -0.40904  -0.40487  -0.39990  -0.39805  -0.39300
 Alpha  occ. eigenvalues --   -0.39254  -0.39072  -0.38439  -0.37971  -0.37600
 Alpha  occ. eigenvalues --   -0.37391  -0.36746  -0.36554  -0.35753  -0.34910
 Alpha  occ. eigenvalues --   -0.34391  -0.33975  -0.31665  -0.31109  -0.29776
 Alpha  occ. eigenvalues --   -0.28881  -0.28605  -0.27653  -0.24814  -0.24380
 Alpha virt. eigenvalues --   -0.01525   0.00401   0.03545   0.03749   0.10137
 Alpha virt. eigenvalues --    0.10983   0.11650   0.12214   0.13170   0.13502
 Alpha virt. eigenvalues --    0.14219   0.14583   0.14754   0.15226   0.15599

 Mulliken charges:
               1
     1  C   -0.306275
     2  C   -0.307147
     3  C   -0.309212
     4  C   -0.060180
     5  C    0.056570
     6  C   -0.311455
     7  H    0.174011
     8  H    0.162846
     9  H    0.165534
    10  H    0.151026
    11  H    0.163378
    12  H    0.209045
    13  H    0.173080
    14  H    0.193120
    15  H    0.163577
    16  H    0.154275
    17  N   -0.430604
    18  C    0.067341
    19  C    0.063824
    20  C   -0.201721
    21  H    0.206422
    22  C   -0.209196
    23  H    0.245190
    24  C    0.445899
    25  H    0.192069
    26  H    0.211517
    27  N   -0.525993
    28  C   -0.170858
    29  H    0.169754
    30  H    0.229475
    31  C   -0.154786
    32  H    0.165583
    33  H    0.205889
    34  N   -0.815562
    35  S    1.253285
    36  O   -0.611868
    37  O   -0.606108
    38  C    0.084495
    39  C   -0.184392
    40  C   -0.189802
    41  C   -0.171208
    42  C   -0.163733
    43  C   -0.212084
    44  H    0.211678
    45  H    0.140574
    46  H    0.154931
    47  H    0.158610
    48  H    0.152480
    49  O   -0.550365
    50  H    0.448263
    51  C    0.724421
    52  O   -0.722063
    53  O   -0.718127
    54  H    0.444445
    55  C   -0.338564
    56  H    0.148784
    57  H    0.151189
    58  C   -0.091358
    59  H    0.139929
    60  H    0.147879
    61  C   -0.663320
    62  H    0.273710
    63  H    0.196351
    64  H    0.217660
    65  C   -0.292687
    66  H    0.135622
    67  H    0.146267
    68  C   -0.473317
    69  H    0.148874
    70  H    0.154489
    71  H    0.145075
    72  C   -0.331917
    73  H    0.187116
    74  H    0.162928
    75  C   -0.343163
    76  H    0.197542
    77  H    0.171045
 Sum of Mulliken charges =  -0.00000

 Dipole moment (field-independent basis, Debye):
    X=             -2.5828    Y=             -1.9296    Z=             -6.3437  Tot=              7.1160
 Quadrupole moment (field-independent basis, Debye-Ang):
   XX=           -205.7967   YY=           -222.7208   ZZ=           -219.9208
   XY=            -12.4147   XZ=             -5.3038   YZ=             10.0509

 Normal termination of Gaussian 16 at Thu Feb  7 14:41:31 2019.
