 Gaussian 16, Revision A.03,
 Gaussian 16:  ES64L-G16RevA.03 25-Dec-2016

 ------------------------------------------
 #p M062X/6-31G* em=gd3 force int=ultrafine
 ------------------------------------------

 -----
 Title
 -----
 Symbolic Z-matrix:
 Charge =  0 Multiplicity = 1

                         Standard orientation:
 ---------------------------------------------------------------------
 Center     Atomic      Atomic             Coordinates (Angstroms)
 Number     Number       Type             X           Y           Z
 ---------------------------------------------------------------------
      1          6           0       -4.861232    0.024471   -0.407969
      2          6           0       -4.878279   -1.244337   -1.265917
      3          6           0       -3.492549   -1.517922   -1.862703
      4          6           0       -2.487167   -1.651814   -0.723774
      5          6           0       -2.411254   -0.343937    0.112695
      6          6           0       -3.802899   -0.056072    0.696191
      7          1           0       -3.497267   -2.424374   -2.478810
      8          1           0       -5.180565   -2.101470   -0.649899
      9          1           0       -5.614004   -1.154106   -2.071776
     10          1           0       -4.636381    0.886494   -1.051695
     11          1           0       -5.852169    0.197156    0.025451
     12          1           0       -2.788685   -2.471924   -0.067037
     13          1           0       -2.207271    0.451955   -0.618511
     14          1           0       -4.060795   -0.841810    1.417615
     15          1           0       -3.747277    0.894601    1.240796
     16          1           0       -3.226334   -0.670721   -2.509950
     17          7           0       -1.115586   -1.985524   -1.172425
     18          6           0       -0.513533   -1.266240   -2.146987
     19          6           0       -0.351446   -2.752535   -0.359536
     20          6           0        0.839508   -1.277157   -2.329033
     21          1           0       -1.163853   -0.656656   -2.761112
     22          6           0        1.007716   -2.812208   -0.478034
     23          1           0       -0.879798   -3.275725    0.430215
     24          6           0        1.669835   -1.995643   -1.425508
     25          1           0        1.263488   -0.685564   -3.129704
     26          1           0        1.552933   -3.403877    0.243932
     27          7           0        3.005394   -1.893611   -1.453143
     28          6           0        3.820214   -2.432340   -0.357914
     29          1           0        3.764295   -3.524773   -0.334376
     30          1           0        3.446219   -2.033721    0.595616
     31          6           0        3.688745   -0.790049   -2.144311
     32          1           0        3.935247   -1.082433   -3.172560
     33          1           0        3.044186    0.092715   -2.156193
     34          7           0       -1.290005   -0.304145    1.030301
     35         16           0       -1.250430   -1.274415    2.275320
     36          8           0       -2.229239   -2.382705    2.213296
     37          8           0        0.151417   -1.715061    2.514555
     38          6           0       -1.243262    2.829070   -0.176206
     39          6           0       -0.445273    2.213179   -1.144679
     40          6           0       -0.903823    2.102275   -2.456170
     41          6           0       -2.168544    2.570747   -2.810093
     42          6           0       -2.972920    3.169362   -1.841649
     43          6           0       -2.507279    3.299195   -0.535722
     44          1           0        0.509560    1.780703   -0.851635
     45          1           0       -0.269439    1.639261   -3.208776
     46          1           0       -2.525295    2.474314   -3.831358
     47          1           0       -3.963402    3.531802   -2.101461
     48          1           0       -3.139321    3.758633    0.221698
     49          8           0        0.163767    1.966880    1.607569
     50          1           0       -0.267346    1.096306    1.366552
     51          6           0        2.428924    0.669317    1.287918
     52          8           0        2.164335    0.219867    0.185190
     53          8           0        2.138761    0.056402    2.421984
     54          1           0        1.477613   -0.677216    2.278941
     55          6           0        3.180060    1.961975    1.504732
     56          1           0        2.723397    2.462129    2.363163
     57          1           0        4.210665    1.708539    1.793359
     58          6           0       -0.755992    2.958621    1.253749
     59          1           0       -1.633115    2.961803    1.925441
     60          1           0       -0.252143    3.925356    1.382836
     61          6           0       -1.652541   -0.290569    3.716319
     62          1           0       -0.963668    0.557359    3.728871
     63          1           0       -2.684385    0.052264    3.617713
     64          1           0       -1.532071   -0.905337    4.609424
     65          6           0        3.164900    2.858164    0.273628
     66          1           0        3.576660    2.310855   -0.583082
     67          1           0        2.121032    3.078876    0.025194
     68          6           0        3.937935    4.154757    0.494030
     69          1           0        3.915019    4.788584   -0.397120
     70          1           0        3.509805    4.727294    1.323482
     71          1           0        4.987204    3.954277    0.737205
     72          6           0        5.221780   -1.915092   -0.669926
     73          1           0        5.844046   -1.857777    0.225326
     74          1           0        5.715126   -2.575095   -1.391086
     75          6           0        4.940840   -0.547542   -1.297405
     76          1           0        4.694887    0.175235   -0.513605
     77          1           0        5.774319   -0.159465   -1.886436
 ---------------------------------------------------------------------

 SCF Done:  E(RM062X) =  -1991.39079332     A.U. after   15 cycles

 The electronic state is 1-A.
 Alpha  occ. eigenvalues --  -90.10413 -19.63418 -19.60133 -19.59360 -19.58647
 Alpha  occ. eigenvalues --  -19.58392 -14.84821 -14.80545 -14.69461 -10.65454
 Alpha  occ. eigenvalues --  -10.63249 -10.62374 -10.61543 -10.59171 -10.59156
 Alpha  occ. eigenvalues --  -10.59018 -10.57810 -10.57428 -10.56867 -10.56655
 Alpha  occ. eigenvalues --  -10.56103 -10.55788 -10.55479 -10.54964 -10.54919
 Alpha  occ. eigenvalues --  -10.54854 -10.54565 -10.54533 -10.54481 -10.53820
 Alpha  occ. eigenvalues --  -10.53724 -10.53561 -10.53110 -10.52885 -10.52661
 Alpha  occ. eigenvalues --  -10.52471  -8.41380  -6.33618  -6.33525  -6.33445
 Alpha  occ. eigenvalues --   -1.19152  -1.17950  -1.12956  -1.10372  -1.09861
 Alpha  occ. eigenvalues --   -1.09196  -1.06218  -0.97577  -0.95244  -0.94845
 Alpha  occ. eigenvalues --   -0.92201  -0.89863  -0.88612  -0.87965  -0.85024
 Alpha  occ. eigenvalues --   -0.84969  -0.83654  -0.83511  -0.83304  -0.80237
 Alpha  occ. eigenvalues --   -0.79068  -0.76378  -0.75677  -0.74655  -0.70956
 Alpha  occ. eigenvalues --   -0.70204  -0.69026  -0.68756  -0.68373  -0.67977
 Alpha  occ. eigenvalues --   -0.65705  -0.64728  -0.63969  -0.63444  -0.61676
 Alpha  occ. eigenvalues --   -0.60290  -0.59417  -0.58933  -0.58382  -0.56179
 Alpha  occ. eigenvalues --   -0.55499  -0.55160  -0.55071  -0.53987  -0.53659
 Alpha  occ. eigenvalues --   -0.53434  -0.53088  -0.52305  -0.51989  -0.51735
 Alpha  occ. eigenvalues --   -0.51187  -0.51025  -0.50614  -0.50299  -0.49836
 Alpha  occ. eigenvalues --   -0.49640  -0.49405  -0.48862  -0.48382  -0.48025
 Alpha  occ. eigenvalues --   -0.47761  -0.47174  -0.46959  -0.46845  -0.45960
 Alpha  occ. eigenvalues --   -0.45899  -0.45262  -0.43979  -0.43654  -0.43428
 Alpha  occ. eigenvalues --   -0.42761  -0.42432  -0.42295  -0.41928  -0.41839
 Alpha  occ. eigenvalues --   -0.41167  -0.40808  -0.40619  -0.39935  -0.39518
 Alpha  occ. eigenvalues --   -0.39383  -0.39167  -0.38681  -0.38377  -0.37765
 Alpha  occ. eigenvalues --   -0.37410  -0.36311  -0.35958  -0.35401  -0.35107
 Alpha  occ. eigenvalues --   -0.34435  -0.33179  -0.32145  -0.31661  -0.31522
 Alpha  occ. eigenvalues --   -0.29821  -0.28871  -0.28332  -0.27600  -0.25477
 Alpha virt. eigenvalues --   -0.01024   0.00642   0.03353   0.03838   0.09080
 Alpha virt. eigenvalues --    0.10096   0.10978   0.11691   0.13005   0.13366
 Alpha virt. eigenvalues --    0.13757   0.14159   0.15277   0.15581   0.15729

 Mulliken charges:
               1
     1  C   -0.304038
     2  C   -0.304226
     3  C   -0.309854
     4  C   -0.073673
     5  C    0.061706
     6  C   -0.305596
     7  H    0.165752
     8  H    0.160893
     9  H    0.159258
    10  H    0.146953
    11  H    0.156634
    12  H    0.213342
    13  H    0.141251
    14  H    0.180397
    15  H    0.148083
    16  H    0.151775
    17  N   -0.424759
    18  C    0.100769
    19  C    0.084870
    20  C   -0.228264
    21  H    0.206197
    22  C   -0.227233
    23  H    0.263787
    24  C    0.428899
    25  H    0.188329
    26  H    0.206609
    27  N   -0.530066
    28  C   -0.156041
    29  H    0.178436
    30  H    0.198674
    31  C   -0.147498
    32  H    0.169437
    33  H    0.196875
    34  N   -0.754704
    35  S    1.248514
    36  O   -0.646886
    37  O   -0.671368
    38  C    0.048681
    39  C   -0.176775
    40  C   -0.187061
    41  C   -0.170339
    42  C   -0.162858
    43  C   -0.196782
    44  H    0.199489
    45  H    0.140201
    46  H    0.156549
    47  H    0.161703
    48  H    0.155822
    49  O   -0.708097
    50  H    0.478958
    51  C    0.639943
    52  O   -0.524202
    53  O   -0.642298
    54  H    0.485457
    55  C   -0.366224
    56  H    0.199060
    57  H    0.163934
    58  C   -0.070487
    59  H    0.129203
    60  H    0.163644
    61  C   -0.654726
    62  H    0.217604
    63  H    0.188277
    64  H    0.208428
    65  C   -0.286763
    66  H    0.142625
    67  H    0.170396
    68  C   -0.480635
    69  H    0.158125
    70  H    0.158947
    71  H    0.149061
    72  C   -0.337555
    73  H    0.183684
    74  H    0.170120
    75  C   -0.335581
    76  H    0.183772
    77  H    0.173466
 Sum of Mulliken charges =  -0.00000

 Dipole moment (field-independent basis, Debye):
    X=              1.6039    Y=             -0.4217    Z=             -6.4676  Tot=              6.6769
 Quadrupole moment (field-independent basis, Debye-Ang):
   XX=           -197.3784   YY=           -224.2706   ZZ=           -221.2705
   XY=            -12.3229   XZ=             -1.7722   YZ=             12.1092

 Normal termination of Gaussian 16 at Fri Feb  8 02:02:21 2019.
