 Gaussian 16, Revision A.03,
 Gaussian 16:  ES64L-G16RevA.03 25-Dec-2016

 ------------------------------------------
 #p M062X/6-31G* em=gd3 force int=ultrafine
 ------------------------------------------

 -----
 Title
 -----
 Symbolic Z-matrix:
 Charge =  0 Multiplicity = 1

                         Standard orientation:
 ---------------------------------------------------------------------
 Center     Atomic      Atomic             Coordinates (Angstroms)
 Number     Number       Type             X           Y           Z
 ---------------------------------------------------------------------
      1          6           0       -4.865294    0.505021   -0.557455
      2          6           0       -5.035892   -0.793631   -1.351054
      3          6           0       -3.694827   -1.258790   -1.931126
      4          6           0       -2.702156   -1.461487   -0.790849
      5          6           0       -2.501572   -0.146023   -0.000146
      6          6           0       -3.837414    0.344694    0.566049
      7          1           0       -3.806286   -2.185745   -2.503554
      8          1           0       -5.437868   -1.576428   -0.694511
      9          1           0       -5.757337   -0.655043   -2.162286
     10          1           0       -4.529694    1.300131   -1.237179
     11          1           0       -5.827081    0.821709   -0.141454
     12          1           0       -3.088264   -2.223835   -0.106340
     13          1           0       -2.153289    0.606491   -0.719357
     14          1           0       -4.201673   -0.366039    1.315540
     15          1           0       -3.660414    1.304187    1.064888
     16          1           0       -3.330769   -0.481772   -2.616667
     17          7           0       -1.371718   -1.940589   -1.220701
     18          6           0       -0.685742   -1.291064   -2.199200
     19          6           0       -0.678699   -2.737942   -0.365197
     20          6           0        0.665107   -1.388049   -2.329105
     21          1           0       -1.273567   -0.663297   -2.856631
     22          6           0        0.673828   -2.871676   -0.421275
     23          1           0       -1.265455   -3.220271    0.408862
     24          6           0        1.423928   -2.107754   -1.357542
     25          1           0        1.153686   -0.843355   -3.125944
     26          1           0        1.157075   -3.473938    0.334879
     27          7           0        2.750962   -2.077313   -1.328386
     28          6           0        3.486661   -2.573236   -0.154108
     29          1           0        3.344254   -3.651173   -0.035562
     30          1           0        3.115756   -2.034182    0.729250
     31          6           0        3.520772   -1.041276   -2.038012
     32          1           0        3.780921   -1.393509   -3.044031
     33          1           0        2.925375   -0.127072   -2.088957
     34          7           0       -1.415753   -0.242642    0.959464
     35         16           0       -1.426723   -1.101696    2.347263
     36          8           0       -2.662029   -1.888085    2.354995
     37          8           0       -0.154433   -1.810805    2.483630
     38          6           0       -0.527398    2.666271   -0.074206
     39          6           0       -0.045433    2.071897   -1.248910
     40          6           0       -0.785857    2.147567   -2.428427
     41          6           0       -2.020553    2.795764   -2.458353
     42          6           0       -2.511709    3.378029   -1.291437
     43          6           0       -1.766065    3.313256   -0.114684
     44          1           0        0.886247    1.509804   -1.194662
     45          1           0       -0.389334    1.699600   -3.337575
     46          1           0       -2.591201    2.853183   -3.381163
     47          1           0       -3.472589    3.885243   -1.297399
     48          1           0       -2.155586    3.773379    0.791358
     49          8           0        0.704560    1.395873    1.680979
     50          1           0       -0.507901    0.212450    0.780807
     51          6           0        2.031694    0.756657    1.172465
     52          8           0        1.841655    0.187337    0.027611
     53          8           0        2.284992   -0.129308    2.245974
     54          1           0        1.580755   -0.800402    2.191175
     55          6           0        3.137558    1.830332    1.254916
     56          1           0        2.934950    2.513791    2.089438
     57          1           0        4.058124    1.295995    1.523370
     58          6           0        0.265374    2.646333    1.230673
     59          1           0       -0.392045    3.050932    2.014802
     60          1           0        1.103973    3.352719    1.147574
     61          6           0       -1.459980    0.118536    3.639997
     62          1           0       -0.571209    0.737957    3.484438
     63          1           0       -2.379940    0.697259    3.544730
     64          1           0       -1.421750   -0.405555    4.596340
     65          6           0        3.377615    2.602048   -0.040502
     66          1           0        3.643903    1.890306   -0.830333
     67          1           0        2.456806    3.085215   -0.388138
     68          6           0        4.473961    3.653216    0.117604
     69          1           0        4.666110    4.185544   -0.819165
     70          1           0        4.195975    4.395959    0.873819
     71          1           0        5.413271    3.192273    0.443181
     72          6           0        4.929065   -2.189149   -0.461558
     73          1           0        5.534860   -2.131023    0.444598
     74          1           0        5.383197   -2.920254   -1.139907
     75          6           0        4.752236   -0.837002   -1.153385
     76          1           0        4.501105   -0.082858   -0.402231
     77          1           0        5.626843   -0.512794   -1.721415
 ---------------------------------------------------------------------

 SCF Done:  E(RM062X) =  -1991.35580723     A.U. after   15 cycles

 The electronic state is 1-A.
 Alpha  occ. eigenvalues --  -90.14801 -19.62394 -19.62158 -19.58584 -19.56870
 Alpha  occ. eigenvalues --  -19.50492 -14.85214 -14.80061 -14.76696 -10.63179
 Alpha  occ. eigenvalues --  -10.62640 -10.62152 -10.62087 -10.61092 -10.59898
 Alpha  occ. eigenvalues --  -10.57798 -10.57781 -10.57619 -10.57009 -10.57001
 Alpha  occ. eigenvalues --  -10.56907 -10.56299 -10.55887 -10.55097 -10.55089
 Alpha  occ. eigenvalues --  -10.55005 -10.54846 -10.54688 -10.54666 -10.54644
 Alpha  occ. eigenvalues --  -10.54456 -10.54100 -10.53087 -10.51094 -10.50984
 Alpha  occ. eigenvalues --  -10.49492  -8.45768  -6.37996  -6.37949  -6.37812
 Alpha  occ. eigenvalues --   -1.22581  -1.13497  -1.12880  -1.10795  -1.08908
 Alpha  occ. eigenvalues --   -1.05849  -1.02516  -0.99677  -0.95861  -0.95191
 Alpha  occ. eigenvalues --   -0.93495  -0.90155  -0.88595  -0.86534  -0.85333
 Alpha  occ. eigenvalues --   -0.84929  -0.84865  -0.83731  -0.83270  -0.83088
 Alpha  occ. eigenvalues --   -0.76593  -0.75937  -0.75581  -0.74258  -0.73287
 Alpha  occ. eigenvalues --   -0.71782  -0.68223  -0.68165  -0.67766  -0.67509
 Alpha  occ. eigenvalues --   -0.66453  -0.65495  -0.64848  -0.63371  -0.60496
 Alpha  occ. eigenvalues --   -0.60364  -0.59964  -0.59456  -0.57909  -0.57693
 Alpha  occ. eigenvalues --   -0.57186  -0.56429  -0.55721  -0.55117  -0.54375
 Alpha  occ. eigenvalues --   -0.53577  -0.53086  -0.52692  -0.52480  -0.52136
 Alpha  occ. eigenvalues --   -0.51700  -0.50805  -0.50174  -0.49916  -0.49345
 Alpha  occ. eigenvalues --   -0.49219  -0.48972  -0.48450  -0.48155  -0.47986
 Alpha  occ. eigenvalues --   -0.47733  -0.47626  -0.47171  -0.46150  -0.45816
 Alpha  occ. eigenvalues --   -0.45210  -0.45108  -0.44373  -0.43937  -0.43217
 Alpha  occ. eigenvalues --   -0.42498  -0.42307  -0.41145  -0.40915  -0.40793
 Alpha  occ. eigenvalues --   -0.40672  -0.40422  -0.40074  -0.39840  -0.39388
 Alpha  occ. eigenvalues --   -0.39193  -0.38901  -0.38608  -0.38345  -0.37841
 Alpha  occ. eigenvalues --   -0.37365  -0.36501  -0.36429  -0.36081  -0.35004
 Alpha  occ. eigenvalues --   -0.34502  -0.34270  -0.31765  -0.31358  -0.29988
 Alpha  occ. eigenvalues --   -0.29197  -0.28810  -0.27749  -0.24121  -0.23894
 Alpha virt. eigenvalues --   -0.01253   0.00549   0.03239   0.03571   0.10137
 Alpha virt. eigenvalues --    0.10589   0.11325   0.12551   0.13172   0.13285
 Alpha virt. eigenvalues --    0.14122   0.14430   0.14988   0.15494   0.15553

 Mulliken charges:
               1
     1  C   -0.306403
     2  C   -0.307816
     3  C   -0.310835
     4  C   -0.059641
     5  C    0.062770
     6  C   -0.307321
     7  H    0.175579
     8  H    0.163251
     9  H    0.166847
    10  H    0.150975
    11  H    0.165056
    12  H    0.206824
    13  H    0.175318
    14  H    0.193463
    15  H    0.161602
    16  H    0.156181
    17  N   -0.437468
    18  C    0.077295
    19  C    0.077238
    20  C   -0.207653
    21  H    0.203366
    22  C   -0.219004
    23  H    0.243074
    24  C    0.449769
    25  H    0.192135
    26  H    0.209928
    27  N   -0.518907
    28  C   -0.166752
    29  H    0.166948
    30  H    0.222870
    31  C   -0.146488
    32  H    0.160546
    33  H    0.205692
    34  N   -0.805156
    35  S    1.240074
    36  O   -0.603181
    37  O   -0.591606
    38  C    0.052879
    39  C   -0.196098
    40  C   -0.192142
    41  C   -0.172318
    42  C   -0.165484
    43  C   -0.205343
    44  H    0.231820
    45  H    0.141739
    46  H    0.156028
    47  H    0.159583
    48  H    0.153793
    49  O   -0.589594
    50  H    0.445895
    51  C    0.717024
    52  O   -0.698619
    53  O   -0.705687
    54  H    0.432243
    55  C   -0.340722
    56  H    0.143558
    57  H    0.150447
    58  C   -0.082221
    59  H    0.132357
    60  H    0.155379
    61  C   -0.665619
    62  H    0.270446
    63  H    0.200061
    64  H    0.222235
    65  C   -0.285481
    66  H    0.141432
    67  H    0.140456
    68  C   -0.474479
    69  H    0.147945
    70  H    0.149750
    71  H    0.147986
    72  C   -0.333805
    73  H    0.184817
    74  H    0.160005
    75  C   -0.338754
    76  H    0.204362
    77  H    0.165559
 Sum of Mulliken charges =  -0.00000

 Dipole moment (field-independent basis, Debye):
    X=             -3.6049    Y=             -1.7232    Z=             -5.7494  Tot=              7.0015
 Quadrupole moment (field-independent basis, Debye-Ang):
   XX=           -208.5684   YY=           -222.1012   ZZ=           -218.6084
   XY=            -13.2626   XZ=             -4.1050   YZ=             10.6892

 Normal termination of Gaussian 16 at Thu Feb  7 10:46:36 2019.
