 Gaussian 16, Revision A.03,
 Gaussian 16:  ES64L-G16RevA.03 25-Dec-2016

 ------------------------------------------
 #p M062X/6-31G* em=gd3 force int=ultrafine
 ------------------------------------------

 -----
 Title
 -----
 Symbolic Z-matrix:
 Charge =  0 Multiplicity = 1

                         Standard orientation:
 ---------------------------------------------------------------------
 Center     Atomic      Atomic             Coordinates (Angstroms)
 Number     Number       Type             X           Y           Z
 ---------------------------------------------------------------------
      1          6           0       -4.854957    0.346524   -0.490224
      2          6           0       -4.983278   -0.928537   -1.329105
      3          6           0       -3.627281   -1.332678   -1.921589
      4          6           0       -2.634921   -1.540795   -0.783055
      5          6           0       -2.462781   -0.247676    0.059892
      6          6           0       -3.822992    0.178708    0.628676
      7          1           0       -3.712806   -2.239943   -2.530194
      8          1           0       -5.359378   -1.745134   -0.699080
      9          1           0       -5.708220   -0.786991   -2.137291
     10          1           0       -4.539975    1.172692   -1.143507
     11          1           0       -5.829471    0.622042   -0.073273
     12          1           0       -2.989926   -2.340395   -0.125149
     13          1           0       -2.173237    0.530481   -0.663451
     14          1           0       -4.162521   -0.563964    1.360644
     15          1           0       -3.675840    1.128758    1.156769
     16          1           0       -3.288123   -0.518496   -2.576915
     17          7           0       -1.282613   -1.958416   -1.227916
     18          6           0       -0.631234   -1.274681   -2.198347
     19          6           0       -0.558598   -2.735718   -0.387443
     20          6           0        0.724449   -1.334546   -2.350871
     21          1           0       -1.243658   -0.648665   -2.834356
     22          6           0        0.800503   -2.844285   -0.475528
     23          1           0       -1.118770   -3.234506    0.396096
     24          6           0        1.513033   -2.064200   -1.417690
     25          1           0        1.184468   -0.764025   -3.147178
     26          1           0        1.306520   -3.440528    0.270724
     27          7           0        2.852564   -2.000310   -1.409904
     28          6           0        3.611923   -2.502296   -0.256022
     29          1           0        3.521534   -3.588740   -0.173074
     30          1           0        3.219790   -2.038455    0.659943
     31          6           0        3.584364   -0.926179   -2.103002
     32          1           0        3.854606   -1.246665   -3.116106
     33          1           0        2.963616   -0.027923   -2.153761
     34          7           0       -1.350303   -0.330271    0.972446
     35         16           0       -1.369632   -1.219558    2.281973
     36          8           0       -2.480808   -2.193404    2.319230
     37          8           0       -0.010599   -1.790475    2.480523
     38          6           0       -0.793293    2.787595   -0.081386
     39          6           0       -0.199191    2.136766   -1.170802
     40          6           0       -0.835970    2.140683   -2.410512
     41          6           0       -2.080509    2.752354   -2.569982
     42          6           0       -2.683917    3.375251   -1.480516
     43          6           0       -2.035981    3.393216   -0.248692
     44          1           0        0.736527    1.597546   -1.031816
     45          1           0       -0.361760    1.657552   -3.262598
     46          1           0       -2.578874    2.742876   -3.534641
     47          1           0       -3.657671    3.844120   -1.582597
     48          1           0       -2.501647    3.870912    0.609768
     49          8           0        0.296251    1.546900    1.688870
     50          1           0       -0.323884    0.837187    1.293836
     51          6           0        2.423070    0.566792    1.166350
     52          8           0        2.094834    0.160512    0.067243
     53          8           0        2.274996   -0.139992    2.283383
     54          1           0        1.537461   -0.795037    2.176672
     55          6           0        3.146968    1.876342    1.384732
     56          1           0        2.612492    2.414501    2.174977
     57          1           0        4.140193    1.641720    1.790004
     58          6           0       -0.142423    2.802493    1.284280
     59          1           0       -0.852777    3.229545    2.009935
     60          1           0        0.736771    3.464325    1.275165
     61          6           0       -1.555656   -0.083024    3.655946
     62          1           0       -0.749459    0.646911    3.550213
     63          1           0       -2.528484    0.406763    3.581115
     64          1           0       -1.464628   -0.633517    4.593018
     65          6           0        3.277383    2.723880    0.120515
     66          1           0        3.664758    2.103559   -0.696164
     67          1           0        2.287619    3.060105   -0.210228
     68          6           0        4.188062    3.930469    0.337226
     69          1           0        4.321890    4.503489   -0.584908
     70          1           0        3.777491    4.606643    1.094666
     71          1           0        5.178150    3.611947    0.681014
     72          6           0        5.037876   -2.042198   -0.542836
     73          1           0        5.635164   -1.971158    0.368419
     74          1           0        5.529156   -2.742125   -1.226377
     75          6           0        4.818186   -0.690819   -1.225809
     76          1           0        4.575370    0.064236   -0.473060
     77          1           0        5.679702   -0.344710   -1.800437
 ---------------------------------------------------------------------

 SCF Done:  E(RM062X) =  -1991.37916500     A.U. after   15 cycles

 The electronic state is 1-A.
 Alpha  occ. eigenvalues --  -90.10228 -19.63685 -19.60207 -19.58358 -19.58303
 Alpha  occ. eigenvalues --  -19.58240 -14.84806 -14.80405 -14.69258 -10.65958
 Alpha  occ. eigenvalues --  -10.63220 -10.62452 -10.61673 -10.59285 -10.59045
 Alpha  occ. eigenvalues --  -10.58854 -10.57832 -10.57243 -10.56773 -10.56733
 Alpha  occ. eigenvalues --  -10.55912 -10.55678 -10.55644 -10.55124 -10.55052
 Alpha  occ. eigenvalues --  -10.54957 -10.54641 -10.54624 -10.54517 -10.54015
 Alpha  occ. eigenvalues --  -10.53674 -10.53620 -10.53613 -10.53224 -10.52994
 Alpha  occ. eigenvalues --  -10.52625  -8.41176  -6.33412  -6.33323  -6.33245
 Alpha  occ. eigenvalues --   -1.19328  -1.17669  -1.12931  -1.10123  -1.09905
 Alpha  occ. eigenvalues --   -1.09041  -1.05980  -0.97623  -0.95399  -0.94746
 Alpha  occ. eigenvalues --   -0.92213  -0.89817  -0.88573  -0.88451  -0.85105
 Alpha  occ. eigenvalues --   -0.84788  -0.83753  -0.83578  -0.83282  -0.79971
 Alpha  occ. eigenvalues --   -0.79497  -0.76307  -0.75603  -0.74606  -0.70970
 Alpha  occ. eigenvalues --   -0.70335  -0.69437  -0.68649  -0.68355  -0.68128
 Alpha  occ. eigenvalues --   -0.66040  -0.64781  -0.63922  -0.63553  -0.61623
 Alpha  occ. eigenvalues --   -0.60302  -0.59394  -0.59143  -0.58359  -0.56193
 Alpha  occ. eigenvalues --   -0.55839  -0.55343  -0.55190  -0.54606  -0.53941
 Alpha  occ. eigenvalues --   -0.53494  -0.53056  -0.52665  -0.51803  -0.51630
 Alpha  occ. eigenvalues --   -0.51067  -0.50943  -0.50639  -0.49981  -0.49876
 Alpha  occ. eigenvalues --   -0.49775  -0.49518  -0.48759  -0.48316  -0.48061
 Alpha  occ. eigenvalues --   -0.47636  -0.47283  -0.47105  -0.47009  -0.45780
 Alpha  occ. eigenvalues --   -0.45479  -0.45144  -0.44006  -0.43779  -0.43502
 Alpha  occ. eigenvalues --   -0.43180  -0.42846  -0.42130  -0.41938  -0.41781
 Alpha  occ. eigenvalues --   -0.41261  -0.40933  -0.40513  -0.39900  -0.39700
 Alpha  occ. eigenvalues --   -0.39445  -0.39395  -0.39205  -0.38406  -0.38134
 Alpha  occ. eigenvalues --   -0.37460  -0.36325  -0.35840  -0.35341  -0.35123
 Alpha  occ. eigenvalues --   -0.34180  -0.32935  -0.31932  -0.31715  -0.31029
 Alpha  occ. eigenvalues --   -0.30007  -0.28695  -0.28341  -0.27251  -0.25369
 Alpha virt. eigenvalues --   -0.01090   0.00692   0.03082   0.03652   0.08799
 Alpha virt. eigenvalues --    0.10138   0.10968   0.11759   0.12975   0.13457
 Alpha virt. eigenvalues --    0.13733   0.14321   0.15023   0.15417   0.15868

 Mulliken charges:
               1
     1  C   -0.303740
     2  C   -0.304701
     3  C   -0.309650
     4  C   -0.069826
     5  C    0.070879
     6  C   -0.304933
     7  H    0.167296
     8  H    0.161806
     9  H    0.159419
    10  H    0.144393
    11  H    0.157399
    12  H    0.207691
    13  H    0.140177
    14  H    0.183592
    15  H    0.149876
    16  H    0.149761
    17  N   -0.424744
    18  C    0.096698
    19  C    0.096501
    20  C   -0.226532
    21  H    0.204384
    22  C   -0.228274
    23  H    0.256836
    24  C    0.425917
    25  H    0.187357
    26  H    0.207973
    27  N   -0.525470
    28  C   -0.159394
    29  H    0.177966
    30  H    0.197914
    31  C   -0.145086
    32  H    0.169440
    33  H    0.193548
    34  N   -0.778265
    35  S    1.243482
    36  O   -0.633749
    37  O   -0.666258
    38  C    0.052859
    39  C   -0.177774
    40  C   -0.188795
    41  C   -0.169662
    42  C   -0.160258
    43  C   -0.199851
    44  H    0.203743
    45  H    0.140151
    46  H    0.157465
    47  H    0.162648
    48  H    0.159120
    49  O   -0.718326
    50  H    0.487418
    51  C    0.671704
    52  O   -0.520957
    53  O   -0.646575
    54  H    0.480403
    55  C   -0.376183
    56  H    0.200614
    57  H    0.168627
    58  C   -0.062278
    59  H    0.125183
    60  H    0.139748
    61  C   -0.667005
    62  H    0.234838
    63  H    0.184150
    64  H    0.205079
    65  C   -0.292235
    66  H    0.148005
    67  H    0.162850
    68  C   -0.480739
    69  H    0.160320
    70  H    0.159162
    71  H    0.152431
    72  C   -0.335260
    73  H    0.184014
    74  H    0.169329
    75  C   -0.335249
    76  H    0.179106
    77  H    0.172502
 Sum of Mulliken charges =  -0.00000

 Dipole moment (field-independent basis, Debye):
    X=              1.7703    Y=              0.3111    Z=             -6.8049  Tot=              7.0383
 Quadrupole moment (field-independent basis, Debye-Ang):
   XX=           -200.8000   YY=           -222.6452   ZZ=           -222.9866
   XY=            -11.6235   XZ=              1.5487   YZ=             13.4015

 Normal termination of Gaussian 16 at Thu Feb  7 21:07:15 2019.
