 Gaussian 16, Revision A.03,
 Gaussian 16:  ES64L-G16RevA.03 25-Dec-2016

 ------------------------------------------
 #p M062X/6-31G* em=gd3 force int=ultrafine
 ------------------------------------------

 -----
 Title
 -----
 Symbolic Z-matrix:
 Charge =  0 Multiplicity = 1

                         Standard orientation:
 ---------------------------------------------------------------------
 Center     Atomic      Atomic             Coordinates (Angstroms)
 Number     Number       Type             X           Y           Z
 ---------------------------------------------------------------------
      1          6           0       -4.783262    0.278355   -0.712085
      2          6           0       -4.900066   -1.046244   -1.472037
      3          6           0       -3.535989   -1.481356   -2.020991
      4          6           0       -2.560004   -1.614589   -0.857636
      5          6           0       -2.398383   -0.263965   -0.111921
      6          6           0       -3.760847    0.190419    0.425214
      7          1           0       -3.607849   -2.428507   -2.566473
      8          1           0       -5.283713   -1.824973   -0.799921
      9          1           0       -5.614998   -0.953651   -2.295629
     10          1           0       -4.474919    1.066657   -1.411264
     11          1           0       -5.760062    0.568212   -0.311213
     12          1           0       -2.940612   -2.357978   -0.150232
     13          1           0       -2.075415    0.474713   -0.857096
     14          1           0       -4.110102   -0.515088    1.186181
     15          1           0       -3.631752    1.168881    0.899378
     16          1           0       -3.188659   -0.713000   -2.724809
     17          7           0       -1.208943   -2.074908   -1.239443
     18          6           0       -0.523312   -1.445820   -2.229674
     19          6           0       -0.509931   -2.788603   -0.315894
     20          6           0        0.835052   -1.475197   -2.304222
     21          1           0       -1.118764   -0.892025   -2.944793
     22          6           0        0.849089   -2.837803   -0.305941
     23          1           0       -1.102565   -3.262001    0.459333
     24          6           0        1.586555   -2.074236   -1.249703
     25          1           0        1.324421   -0.956244   -3.116977
     26          1           0        1.335441   -3.359755    0.506039
     27          7           0        2.904845   -1.934588   -1.158659
     28          6           0        3.629686   -2.269194    0.077432
     29          1           0        3.530995   -3.334245    0.305027
     30          1           0        3.210885   -1.664198    0.895787
     31          6           0        3.626311   -0.929786   -1.948506
     32          1           0        3.875882   -1.337083   -2.936023
     33          1           0        2.991081   -0.047182   -2.066433
     34          7           0       -1.315115   -0.287469    0.858148
     35         16           0       -1.406000   -1.079370    2.278340
     36          8           0       -2.587152   -1.948359    2.257586
     37          8           0       -0.110293   -1.708398    2.551436
     38          6           0       -0.661214    2.709346    0.016979
     39          6           0       -0.190933    2.247562   -1.222213
     40          6           0       -0.995942    2.312096   -2.357399
     41          6           0       -2.290013    2.829392   -2.286816
     42          6           0       -2.772562    3.281082   -1.062344
     43          6           0       -1.959747    3.222376    0.070402
     44          1           0        0.787899    1.786407   -1.268353
     45          1           0       -0.604652    1.960766   -3.309178
     46          1           0       -2.912543    2.883786   -3.175820
     47          1           0       -3.779069    3.684437   -0.985999
     48          1           0       -2.344127    3.590142    1.020169
     49          8           0        0.665267    1.618903    1.887042
     50          1           0       -0.317856   -0.047312    0.556828
     51          6           0        1.779129    0.865836    1.243152
     52          8           0        1.348947    0.246054    0.161660
     53          8           0        2.173744   -0.003244    2.290034
     54          1           0        1.457140   -0.658976    2.364189
     55          6           0        3.000757    1.810433    1.079448
     56          1           0        2.986996    2.545994    1.893845
     57          1           0        3.881256    1.182413    1.266800
     58          6           0        0.204125    2.793670    1.276963
     59          1           0       -0.403951    3.294465    2.040444
     60          1           0        1.044843    3.470191    1.068838
     61          6           0       -1.632987    0.184572    3.507740
     62          1           0       -0.773875    0.854294    3.412760
     63          1           0       -2.570234    0.701525    3.294616
     64          1           0       -1.668256   -0.301226    4.484173
     65          6           0        3.179167    2.504050   -0.267922
     66          1           0        3.094974    1.755340   -1.063635
     67          1           0        2.376556    3.224724   -0.458191
     68          6           0        4.524555    3.222510   -0.363652
     69          1           0        4.654159    3.714396   -1.332781
     70          1           0        4.614284    3.986645    0.415959
     71          1           0        5.356341    2.521227   -0.227810
     72          6           0        5.064462   -1.870007   -0.251727
     73          1           0        5.649893   -1.678562    0.649464
     74          1           0        5.556206   -2.663658   -0.824654
     75          6           0        4.873088   -0.619329   -1.114044
     76          1           0        4.661565    0.236597   -0.468600
     77          1           0        5.738820   -0.380522   -1.735398
 ---------------------------------------------------------------------

 SCF Done:  E(RM062X) =  -1991.35897683     A.U. after   14 cycles

 The electronic state is 1-A.
 Alpha  occ. eigenvalues --  -90.14030 -19.61645 -19.61636 -19.58806 -19.56743
 Alpha  occ. eigenvalues --  -19.51404 -14.85111 -14.80461 -14.75416 -10.63366
 Alpha  occ. eigenvalues --  -10.62737 -10.62336 -10.62034 -10.60637 -10.59185
 Alpha  occ. eigenvalues --  -10.58771 -10.57885 -10.57872 -10.57033 -10.56833
 Alpha  occ. eigenvalues --  -10.56651 -10.55592 -10.55580 -10.55222 -10.55095
 Alpha  occ. eigenvalues --  -10.54720 -10.54701 -10.54606 -10.54440 -10.54288
 Alpha  occ. eigenvalues --  -10.54212 -10.54154 -10.53084 -10.51702 -10.51591
 Alpha  occ. eigenvalues --  -10.49820  -8.45009  -6.37223  -6.37203  -6.37047
 Alpha  occ. eigenvalues --   -1.21862  -1.13682  -1.13444  -1.10108  -1.09363
 Alpha  occ. eigenvalues --   -1.05913  -1.01555  -0.99435  -0.95662  -0.94897
 Alpha  occ. eigenvalues --   -0.93449  -0.90213  -0.88758  -0.85932  -0.85802
 Alpha  occ. eigenvalues --   -0.84763  -0.84624  -0.84356  -0.82976  -0.82584
 Alpha  occ. eigenvalues --   -0.76632  -0.76385  -0.75828  -0.74393  -0.72685
 Alpha  occ. eigenvalues --   -0.71543  -0.68355  -0.68298  -0.67888  -0.67132
 Alpha  occ. eigenvalues --   -0.66750  -0.65169  -0.64860  -0.63520  -0.60573
 Alpha  occ. eigenvalues --   -0.60405  -0.59795  -0.58795  -0.57858  -0.57529
 Alpha  occ. eigenvalues --   -0.57112  -0.56413  -0.55670  -0.55161  -0.54166
 Alpha  occ. eigenvalues --   -0.53423  -0.52617  -0.52378  -0.52332  -0.51841
 Alpha  occ. eigenvalues --   -0.51509  -0.51102  -0.50953  -0.49835  -0.49589
 Alpha  occ. eigenvalues --   -0.49161  -0.48797  -0.48214  -0.48109  -0.48053
 Alpha  occ. eigenvalues --   -0.47607  -0.47415  -0.46885  -0.46470  -0.46084
 Alpha  occ. eigenvalues --   -0.44937  -0.44638  -0.44056  -0.43870  -0.43243
 Alpha  occ. eigenvalues --   -0.42420  -0.42069  -0.41600  -0.41447  -0.41214
 Alpha  occ. eigenvalues --   -0.40873  -0.40431  -0.40022  -0.39865  -0.39552
 Alpha  occ. eigenvalues --   -0.39230  -0.39034  -0.38415  -0.37856  -0.37575
 Alpha  occ. eigenvalues --   -0.37336  -0.36732  -0.36559  -0.35664  -0.34868
 Alpha  occ. eigenvalues --   -0.34330  -0.33861  -0.31779  -0.30936  -0.29674
 Alpha  occ. eigenvalues --   -0.28877  -0.28512  -0.27537  -0.25004  -0.24538
 Alpha virt. eigenvalues --   -0.01367   0.00528   0.03661   0.03880   0.10245
 Alpha virt. eigenvalues --    0.11070   0.11521   0.12064   0.13214   0.13533
 Alpha virt. eigenvalues --    0.14241   0.14682   0.14841   0.15403   0.15604

 Mulliken charges:
               1
     1  C   -0.306044
     2  C   -0.306841
     3  C   -0.310527
     4  C   -0.058748
     5  C    0.056634
     6  C   -0.311610
     7  H    0.173728
     8  H    0.162930
     9  H    0.164991
    10  H    0.150268
    11  H    0.162833
    12  H    0.208310
    13  H    0.172235
    14  H    0.193957
    15  H    0.163224
    16  H    0.153527
    17  N   -0.433291
    18  C    0.070777
    19  C    0.065375
    20  C   -0.206251
    21  H    0.207159
    22  C   -0.209625
    23  H    0.245875
    24  C    0.452825
    25  H    0.190608
    26  H    0.211757
    27  N   -0.530515
    28  C   -0.177692
    29  H    0.169994
    30  H    0.239062
    31  C   -0.154193
    32  H    0.168845
    33  H    0.200098
    34  N   -0.817435
    35  S    1.254197
    36  O   -0.611379
    37  O   -0.609920
    38  C    0.092927
    39  C   -0.176408
    40  C   -0.188596
    41  C   -0.170315
    42  C   -0.163521
    43  C   -0.212074
    44  H    0.201389
    45  H    0.141658
    46  H    0.154353
    47  H    0.157908
    48  H    0.151681
    49  O   -0.547662
    50  H    0.449848
    51  C    0.728707
    52  O   -0.724548
    53  O   -0.718171
    54  H    0.445958
    55  C   -0.337126
    56  H    0.150553
    57  H    0.147159
    58  C   -0.095713
    59  H    0.141505
    60  H    0.146637
    61  C   -0.662566
    62  H    0.269928
    63  H    0.196313
    64  H    0.217315
    65  C   -0.295852
    66  H    0.142022
    67  H    0.147226
    68  C   -0.476611
    69  H    0.149656
    70  H    0.156471
    71  H    0.144135
    72  C   -0.331930
    73  H    0.187495
    74  H    0.163962
    75  C   -0.344699
    76  H    0.193627
    77  H    0.172219
 Sum of Mulliken charges =  -0.00000

 Dipole moment (field-independent basis, Debye):
    X=             -1.9454    Y=             -2.0317    Z=             -6.4950  Tot=              7.0780
 Quadrupole moment (field-independent basis, Debye-Ang):
   XX=           -204.3759   YY=           -223.0616   ZZ=           -220.0989
   XY=            -12.0999   XZ=             -5.0341   YZ=             10.3555

 Normal termination of Gaussian 16 at Thu Feb  7 17:48:23 2019.
