 Gaussian 16, Revision A.03,
 Gaussian 16:  ES64L-G16RevA.03 25-Dec-2016

 ------------------------------------------
 #p M062X/6-31G* em=gd3 force int=ultrafine
 ------------------------------------------

 -----
 Title
 -----
 Symbolic Z-matrix:
 Charge =  0 Multiplicity = 1

                         Standard orientation:
 ---------------------------------------------------------------------
 Center     Atomic      Atomic             Coordinates (Angstroms)
 Number     Number       Type             X           Y           Z
 ---------------------------------------------------------------------
      1          6           0       -4.781838    0.379670   -0.588733
      2          6           0       -4.946198   -0.909805   -1.398786
      3          6           0       -3.606552   -1.350280   -2.001746
      4          6           0       -2.605593   -1.551837   -0.870113
      5          6           0       -2.394281   -0.235337   -0.077599
      6          6           0       -3.730254    0.227333    0.514865
      7          1           0       -3.713749   -2.272639   -2.582646
      8          1           0       -5.328921   -1.707914   -0.749194
      9          1           0       -5.680369   -0.768315   -2.198118
     10          1           0       -4.476679    1.189636   -1.263990
     11          1           0       -5.741231    0.671505   -0.149217
     12          1           0       -2.985735   -2.314077   -0.182979
     13          1           0       -2.076062    0.524686   -0.802745
     14          1           0       -4.072970   -0.498287    1.260082
     15          1           0       -3.565762    1.184980    1.020087
     16          1           0       -3.259444   -0.561444   -2.682770
     17          7           0       -1.273676   -2.024614   -1.301501
     18          6           0       -0.588538   -1.350834   -2.262900
     19          6           0       -0.575487   -2.797792   -0.426861
     20          6           0        0.768744   -1.391230   -2.350829
     21          1           0       -1.183327   -0.748982   -2.938894
     22          6           0        0.782812   -2.866947   -0.434790
     23          1           0       -1.166553   -3.302002    0.330013
     24          6           0        1.522032   -2.058094   -1.338665
     25          1           0        1.257883   -0.831969   -3.136671
     26          1           0        1.269174   -3.440694    0.341285
     27          7           0        2.841590   -1.934364   -1.246327
     28          6           0        3.565069   -2.341216   -0.031331
     29          1           0        3.461723   -3.416556    0.137712
     30          1           0        3.150195   -1.777880    0.817791
     31          6           0        3.565274   -0.882614   -1.971872
     32          1           0        3.818536   -1.229533   -2.981192
     33          1           0        2.929614    0.004948   -2.033921
     34          7           0       -1.286401   -0.319669    0.860648
     35         16           0       -1.352294   -1.166287    2.250959
     36          8           0       -2.542773   -2.022202    2.219645
     37          8           0       -0.056125   -1.815484    2.467174
     38          6           0       -0.630817    2.699541    0.056435
     39          6           0       -0.156455    2.235437   -1.180528
     40          6           0       -0.947115    2.325435   -2.324320
     41          6           0       -2.229367    2.872459   -2.265868
     42          6           0       -2.714598    3.330065   -1.044143
     43          6           0       -1.917213    3.244451    0.097610
     44          1           0        0.812435    1.751299   -1.217387
     45          1           0       -0.552348    1.971776   -3.274553
     46          1           0       -2.839700    2.946572   -3.161760
     47          1           0       -3.710450    3.759635   -0.977854
     48          1           0       -2.303627    3.616991    1.044392
     49          8           0        0.681850    1.563897    1.909321
     50          1           0       -0.297496   -0.069396    0.555663
     51          6           0        1.812642    0.833609    1.264473
     52          8           0        1.401761    0.226730    0.168822
     53          8           0        2.203309   -0.050618    2.299648
     54          1           0        1.505616   -0.729610    2.331951
     55          6           0        3.021021    1.798698    1.132180
     56          1           0        2.988724    2.517917    1.960667
     57          1           0        3.909857    1.182188    1.315424
     58          6           0        0.218286    2.752282    1.329776
     59          1           0       -0.403720    3.225388    2.100779
     60          1           0        1.055475    3.443306    1.151532
     61          6           0       -1.540027    0.046782    3.536778
     62          1           0       -0.679770    0.716134    3.448269
     63          1           0       -2.479178    0.577047    3.369474
     64          1           0       -1.554168   -0.480026    4.492343
     65          6           0        3.198246    2.522640   -0.199479
     66          1           0        3.137273    1.789678   -1.012041
     67          1           0        2.382827    3.231542   -0.382863
     68          6           0        4.531629    3.267050   -0.266570
     69          1           0        4.659778    3.784449   -1.222558
     70          1           0        4.601757    4.013917    0.532283
     71          1           0        5.373745    2.575966   -0.140628
     72          6           0        5.000484   -1.927072   -0.336233
     73          1           0        5.587481   -1.795624    0.574577
     74          1           0        5.488689   -2.683595   -0.960246
     75          6           0        4.808069   -0.623159   -1.114849
     76          1           0        4.587674    0.185708   -0.414007
     77          1           0        5.674900   -0.339589   -1.715484
 ---------------------------------------------------------------------

 SCF Done:  E(RM062X) =  -1991.35884683     A.U. after   14 cycles

 The electronic state is 1-A.
 Alpha  occ. eigenvalues --  -90.14090 -19.61708 -19.61686 -19.58757 -19.56725
 Alpha  occ. eigenvalues --  -19.51365 -14.85141 -14.80455 -14.75560 -10.63401
 Alpha  occ. eigenvalues --  -10.62774 -10.62308 -10.62118 -10.60679 -10.59258
 Alpha  occ. eigenvalues --  -10.58614 -10.57960 -10.57902 -10.57103 -10.56881
 Alpha  occ. eigenvalues --  -10.56665 -10.55624 -10.55578 -10.55152 -10.54949
 Alpha  occ. eigenvalues --  -10.54804 -10.54739 -10.54686 -10.54536 -10.54364
 Alpha  occ. eigenvalues --  -10.54288 -10.54247 -10.53102 -10.51637 -10.51544
 Alpha  occ. eigenvalues --  -10.49765  -8.45068  -6.37284  -6.37263  -6.37106
 Alpha  occ. eigenvalues --   -1.21920  -1.13642  -1.13494  -1.10173  -1.09353
 Alpha  occ. eigenvalues --   -1.05913  -1.01635  -0.99390  -0.95703  -0.94964
 Alpha  occ. eigenvalues --   -0.93467  -0.90264  -0.88752  -0.85881  -0.85816
 Alpha  occ. eigenvalues --   -0.84806  -0.84670  -0.84291  -0.83037  -0.82635
 Alpha  occ. eigenvalues --   -0.76650  -0.76344  -0.75833  -0.74399  -0.72732
 Alpha  occ. eigenvalues --   -0.71593  -0.68330  -0.68270  -0.67928  -0.67165
 Alpha  occ. eigenvalues --   -0.66761  -0.65207  -0.64867  -0.63520  -0.60578
 Alpha  occ. eigenvalues --   -0.60404  -0.59797  -0.58897  -0.57820  -0.57565
 Alpha  occ. eigenvalues --   -0.57144  -0.56427  -0.55733  -0.55162  -0.54175
 Alpha  occ. eigenvalues --   -0.53488  -0.52639  -0.52409  -0.52375  -0.51893
 Alpha  occ. eigenvalues --   -0.51534  -0.51065  -0.50902  -0.49851  -0.49594
 Alpha  occ. eigenvalues --   -0.49157  -0.48811  -0.48201  -0.48109  -0.48067
 Alpha  occ. eigenvalues --   -0.47634  -0.47437  -0.46896  -0.46465  -0.46096
 Alpha  occ. eigenvalues --   -0.44907  -0.44693  -0.44108  -0.43885  -0.43252
 Alpha  occ. eigenvalues --   -0.42465  -0.42091  -0.41495  -0.41402  -0.41167
 Alpha  occ. eigenvalues --   -0.40881  -0.40454  -0.40007  -0.39841  -0.39429
 Alpha  occ. eigenvalues --   -0.39253  -0.39048  -0.38456  -0.37899  -0.37582
 Alpha  occ. eigenvalues --   -0.37369  -0.36727  -0.36573  -0.35692  -0.34882
 Alpha  occ. eigenvalues --   -0.34365  -0.33906  -0.31714  -0.31015  -0.29743
 Alpha  occ. eigenvalues --   -0.28888  -0.28581  -0.27603  -0.24966  -0.24502
 Alpha virt. eigenvalues --   -0.01466   0.00451   0.03587   0.03796   0.10169
 Alpha virt. eigenvalues --    0.11044   0.11626   0.12126   0.13209   0.13549
 Alpha virt. eigenvalues --    0.14198   0.14667   0.14787   0.15293   0.15599

 Mulliken charges:
               1
     1  C   -0.306135
     2  C   -0.306954
     3  C   -0.309881
     4  C   -0.059506
     5  C    0.057224
     6  C   -0.311879
     7  H    0.173764
     8  H    0.162780
     9  H    0.165234
    10  H    0.150860
    11  H    0.163021
    12  H    0.208565
    13  H    0.172638
    14  H    0.193262
    15  H    0.163465
    16  H    0.153898
    17  N   -0.431455
    18  C    0.068864
    19  C    0.063919
    20  C   -0.203884
    21  H    0.206853
    22  C   -0.208958
    23  H    0.245785
    24  C    0.448370
    25  H    0.191261
    26  H    0.211714
    27  N   -0.527720
    28  C   -0.173725
    29  H    0.169853
    30  H    0.233776
    31  C   -0.154184
    32  H    0.167494
    33  H    0.202017
    34  N   -0.817005
    35  S    1.253908
    36  O   -0.612151
    37  O   -0.608555
    38  C    0.088635
    39  C   -0.179921
    40  C   -0.189177
    41  C   -0.170690
    42  C   -0.163687
    43  C   -0.212155
    44  H    0.205779
    45  H    0.140978
    46  H    0.154726
    47  H    0.158454
    48  H    0.152412
    49  O   -0.548353
    50  H    0.449466
    51  C    0.727127
    52  O   -0.724097
    53  O   -0.718153
    54  H    0.445596
    55  C   -0.338106
    56  H    0.149854
    57  H    0.149779
    58  C   -0.093711
    59  H    0.141075
    60  H    0.147051
    61  C   -0.662881
    62  H    0.271725
    63  H    0.196262
    64  H    0.217368
    65  C   -0.295208
    66  H    0.140427
    67  H    0.146749
    68  C   -0.474977
    69  H    0.149323
    70  H    0.155756
    71  H    0.143869
    72  C   -0.331792
    73  H    0.187549
    74  H    0.163399
    75  C   -0.343845
    76  H    0.195320
    77  H    0.171543
 Sum of Mulliken charges =  -0.00000

 Dipole moment (field-independent basis, Debye):
    X=             -2.2748    Y=             -1.8458    Z=             -6.4547  Tot=              7.0883
 Quadrupole moment (field-independent basis, Debye-Ang):
   XX=           -205.1329   YY=           -223.2481   ZZ=           -219.7611
   XY=            -12.1384   XZ=             -5.3594   YZ=             10.0532

 Normal termination of Gaussian 16 at Thu Feb  7 16:19:54 2019.
