 Gaussian 16, Revision A.03,
 Gaussian 16:  ES64L-G16RevA.03 25-Dec-2016

 ------------------------------------------
 #p M062X/6-31G* em=gd3 force int=ultrafine
 ------------------------------------------

 -----
 Title
 -----
 Symbolic Z-matrix:
 Charge =  0 Multiplicity = 1

                         Standard orientation:
 ---------------------------------------------------------------------
 Center     Atomic      Atomic             Coordinates (Angstroms)
 Number     Number       Type             X           Y           Z
 ---------------------------------------------------------------------
      1          6           0       -4.863980    0.513120   -0.553639
      2          6           0       -5.033927   -0.779729   -1.356709
      3          6           0       -3.692017   -1.241352   -1.937669
      4          6           0       -2.701347   -1.453808   -0.797322
      5          6           0       -2.501937   -0.145071    0.004879
      6          6           0       -3.838779    0.343448    0.570790
      7          1           0       -3.803091   -2.163715   -2.517572
      8          1           0       -5.437579   -1.566922   -0.706473
      9          1           0       -5.753774   -0.634956   -2.168293
     10          1           0       -4.525728    1.312578   -1.226986
     11          1           0       -5.826337    0.828089   -0.137684
     12          1           0       -3.088972   -2.221834   -0.120040
     13          1           0       -2.149692    0.612224   -0.707416
     14          1           0       -4.205223   -0.372071    1.314731
     15          1           0       -3.661486    1.299262    1.076728
     16          1           0       -3.326291   -0.459165   -2.616411
     17          7           0       -1.370449   -1.930197   -1.229277
     18          6           0       -0.684117   -1.275895   -2.204160
     19          6           0       -0.677735   -2.732803   -0.378601
     20          6           0        0.666624   -1.373553   -2.335340
     21          1           0       -1.271478   -0.644045   -2.857985
     22          6           0        0.674688   -2.868013   -0.436380
     23          1           0       -1.264627   -3.219649    0.392515
     24          6           0        1.425432   -2.100470   -1.369216
     25          1           0        1.155215   -0.824934   -3.129506
     26          1           0        1.157391   -3.475759    0.315752
     27          7           0        2.752734   -2.073448   -1.341875
     28          6           0        3.488124   -2.577038   -0.170647
     29          1           0        3.344898   -3.655554   -0.058537
     30          1           0        3.117552   -2.043365    0.716031
     31          6           0        3.524729   -1.035540   -2.046800
     32          1           0        3.785294   -1.384375   -3.053887
     33          1           0        2.931346   -0.119968   -2.094768
     34          7           0       -1.418772   -0.254024    0.965834
     35         16           0       -1.433640   -1.123627    2.345812
     36          8           0       -2.667416   -1.912474    2.343442
     37          8           0       -0.160642   -1.831880    2.481221
     38          6           0       -0.529676    2.673350   -0.069598
     39          6           0       -0.043287    2.073632   -1.239506
     40          6           0       -0.775945    2.152023   -2.423604
     41          6           0       -2.007755    2.805410   -2.461162
     42          6           0       -2.503796    3.391005   -1.297913
     43          6           0       -1.765205    3.325383   -0.116819
     44          1           0        0.885525    1.506521   -1.178296
     45          1           0       -0.376328    1.701491   -3.330118
     46          1           0       -2.572812    2.864045   -3.387302
     47          1           0       -3.462985    3.901206   -1.310175
     48          1           0       -2.157943    3.787386    0.786840
     49          8           0        0.690242    1.379974    1.665264
     50          1           0       -0.524048    0.242659    0.822967
     51          6           0        2.041582    0.746695    1.172717
     52          8           0        1.874761    0.185378    0.023919
     53          8           0        2.276052   -0.139889    2.247990
     54          1           0        1.575288   -0.813692    2.180069
     55          6           0        3.133632    1.830539    1.279853
     56          1           0        2.914697    2.505366    2.117039
     57          1           0        4.056110    1.302594    1.554430
     58          6           0        0.255794    2.640081    1.238170
     59          1           0       -0.404308    3.035339    2.025339
     60          1           0        1.096054    3.345852    1.168485
     61          6           0       -1.469355    0.088099    3.646974
     62          1           0       -0.581988    0.710430    3.494499
     63          1           0       -2.390363    0.665861    3.556240
     64          1           0       -1.428218   -0.441011    4.600367
     65          6           0        3.379538    2.612233   -0.008503
     66          1           0        3.664200    1.907564   -0.798155
     67          1           0        2.456263    3.084403   -0.364772
     68          6           0        4.459992    3.676751    0.167107
     69          1           0        4.656233    4.215140   -0.765335
     70          1           0        4.163523    4.412865    0.922790
     71          1           0        5.401301    3.226635    0.501844
     72          6           0        4.930940   -2.192045   -0.475150
     73          1           0        5.536130   -2.139144    0.431746
     74          1           0        5.385110   -2.919911   -1.156938
     75          6           0        4.755549   -0.836264   -1.160176
     76          1           0        4.503311   -0.085732   -0.405771
     77          1           0        5.630911   -0.509988   -1.725873
 ---------------------------------------------------------------------

 SCF Done:  E(RM062X) =  -1991.35571405     A.U. after   15 cycles

 The electronic state is 1-A.
 Alpha  occ. eigenvalues --  -90.14774 -19.62386 -19.62119 -19.58595 -19.56972
 Alpha  occ. eigenvalues --  -19.50579 -14.85192 -14.80037 -14.76603 -10.63158
 Alpha  occ. eigenvalues --  -10.62617 -10.62170 -10.62133 -10.61087 -10.59889
 Alpha  occ. eigenvalues --  -10.57769 -10.57760 -10.57611 -10.57026 -10.56976
 Alpha  occ. eigenvalues --  -10.56897 -10.56335 -10.55880 -10.55112 -10.55091
 Alpha  occ. eigenvalues --  -10.55030 -10.54872 -10.54684 -10.54672 -10.54649
 Alpha  occ. eigenvalues --  -10.54463 -10.54062 -10.53116 -10.51098 -10.50987
 Alpha  occ. eigenvalues --  -10.49539  -8.45743  -6.37970  -6.37921  -6.37789
 Alpha  occ. eigenvalues --   -1.22558  -1.13470  -1.12847  -1.10765  -1.08878
 Alpha  occ. eigenvalues --   -1.05910  -1.02477  -0.99878  -0.95843  -0.95213
 Alpha  occ. eigenvalues --   -0.93477  -0.90129  -0.88575  -0.86539  -0.85352
 Alpha  occ. eigenvalues --   -0.84933  -0.84856  -0.83708  -0.83299  -0.83073
 Alpha  occ. eigenvalues --   -0.76573  -0.75964  -0.75559  -0.74247  -0.73275
 Alpha  occ. eigenvalues --   -0.71767  -0.68227  -0.68151  -0.67754  -0.67494
 Alpha  occ. eigenvalues --   -0.66439  -0.65491  -0.64867  -0.63347  -0.60504
 Alpha  occ. eigenvalues --   -0.60377  -0.59956  -0.59429  -0.57928  -0.57691
 Alpha  occ. eigenvalues --   -0.57161  -0.56405  -0.55688  -0.55104  -0.54381
 Alpha  occ. eigenvalues --   -0.53564  -0.53083  -0.52682  -0.52476  -0.52158
 Alpha  occ. eigenvalues --   -0.51691  -0.50803  -0.50149  -0.49918  -0.49351
 Alpha  occ. eigenvalues --   -0.49232  -0.48953  -0.48475  -0.48172  -0.48004
 Alpha  occ. eigenvalues --   -0.47727  -0.47630  -0.47165  -0.46161  -0.45808
 Alpha  occ. eigenvalues --   -0.45247  -0.45153  -0.44384  -0.43985  -0.43200
 Alpha  occ. eigenvalues --   -0.42479  -0.42321  -0.41164  -0.40884  -0.40767
 Alpha  occ. eigenvalues --   -0.40674  -0.40404  -0.40105  -0.39840  -0.39400
 Alpha  occ. eigenvalues --   -0.39170  -0.38891  -0.38659  -0.38330  -0.37820
 Alpha  occ. eigenvalues --   -0.37399  -0.36502  -0.36437  -0.36070  -0.35015
 Alpha  occ. eigenvalues --   -0.34532  -0.34279  -0.31756  -0.31368  -0.30012
 Alpha  occ. eigenvalues --   -0.29256  -0.28825  -0.27754  -0.24219  -0.23943
 Alpha virt. eigenvalues --   -0.01231   0.00573   0.03216   0.03559   0.10146
 Alpha virt. eigenvalues --    0.10591   0.11330   0.12561   0.13172   0.13304
 Alpha virt. eigenvalues --    0.14138   0.14435   0.15035   0.15513   0.15551

 Mulliken charges:
               1
     1  C   -0.306420
     2  C   -0.307803
     3  C   -0.310959
     4  C   -0.060077
     5  C    0.064130
     6  C   -0.306984
     7  H    0.175554
     8  H    0.163265
     9  H    0.166801
    10  H    0.151023
    11  H    0.164998
    12  H    0.207006
    13  H    0.174973
    14  H    0.193055
    15  H    0.161054
    16  H    0.156235
    17  N   -0.437458
    18  C    0.078459
    19  C    0.078951
    20  C   -0.208519
    21  H    0.203062
    22  C   -0.220161
    23  H    0.243230
    24  C    0.449632
    25  H    0.192037
    26  H    0.209769
    27  N   -0.518514
    28  C   -0.166151
    29  H    0.166922
    30  H    0.222022
    31  C   -0.145908
    32  H    0.160384
    33  H    0.205534
    34  N   -0.808279
    35  S    1.238972
    36  O   -0.603201
    37  O   -0.591460
    38  C    0.050821
    39  C   -0.196183
    40  C   -0.192380
    41  C   -0.172300
    42  C   -0.165432
    43  C   -0.205065
    44  H    0.233016
    45  H    0.141813
    46  H    0.156173
    47  H    0.159753
    48  H    0.154073
    49  O   -0.594863
    50  H    0.448517
    51  C    0.716120
    52  O   -0.693509
    53  O   -0.704069
    54  H    0.432288
    55  C   -0.340621
    56  H    0.143664
    57  H    0.150674
    58  C   -0.081406
    59  H    0.131633
    60  H    0.155998
    61  C   -0.666035
    62  H    0.268999
    63  H    0.200208
    64  H    0.222590
    65  C   -0.285325
    66  H    0.142230
    67  H    0.140338
    68  C   -0.474684
    69  H    0.148092
    70  H    0.149496
    71  H    0.148236
    72  C   -0.333920
    73  H    0.184576
    74  H    0.159934
    75  C   -0.338398
    76  H    0.204647
    77  H    0.165131
 Sum of Mulliken charges =  -0.00000

 Dipole moment (field-independent basis, Debye):
    X=             -3.5971    Y=             -1.6236    Z=             -5.7201  Tot=              6.9495
 Quadrupole moment (field-independent basis, Debye-Ang):
   XX=           -208.6267   YY=           -222.2763   ZZ=           -218.4226
   XY=            -13.3205   XZ=             -4.0706   YZ=             10.7466

 Normal termination of Gaussian 16 at Thu Feb  7 10:25:45 2019.
