 Gaussian 16, Revision A.03,
 Gaussian 16:  ES64L-G16RevA.03 25-Dec-2016

 ------------------------------------------
 #p M062X/6-31G* em=gd3 force int=ultrafine
 ------------------------------------------

 -----
 Title
 -----
 Symbolic Z-matrix:
 Charge =  0 Multiplicity = 1

                         Standard orientation:
 ---------------------------------------------------------------------
 Center     Atomic      Atomic             Coordinates (Angstroms)
 Number     Number       Type             X           Y           Z
 ---------------------------------------------------------------------
      1          6           0       -4.783297    0.339055   -0.641552
      2          6           0       -4.926120   -0.962972   -1.435380
      3          6           0       -3.575216   -1.398574   -2.016040
      4          6           0       -2.585542   -1.575171   -0.870305
      5          6           0       -2.396301   -0.246436   -0.092586
      6          6           0       -3.744330    0.210812    0.476865
      7          1           0       -3.666415   -2.329540   -2.585896
      8          1           0       -5.309115   -1.755568   -0.779267
      9          1           0       -5.651819   -0.839648   -2.245409
     10          1           0       -4.477111    1.142478   -1.324160
     11          1           0       -5.750615    0.628151   -0.217840
     12          1           0       -2.966288   -2.332030   -0.177496
     13          1           0       -2.075696    0.506987   -0.823641
     14          1           0       -4.089919   -0.508757    1.226469
     15          1           0       -3.595545    1.176043    0.972245
     16          1           0       -3.227920   -0.615385   -2.703425
     17          7           0       -1.244909   -2.041308   -1.281105
     18          6           0       -0.559527   -1.384078   -2.253357
     19          6           0       -0.546344   -2.791368   -0.386682
     20          6           0        0.798329   -1.419607   -2.335356
     21          1           0       -1.154602   -0.800840   -2.945131
     22          6           0        0.812310   -2.851416   -0.386270
     23          1           0       -1.138190   -3.284812    0.376603
     24          6           0        1.550806   -2.059597   -1.305649
     25          1           0        1.287458   -0.875658   -3.131822
     26          1           0        1.298607   -3.404861    0.404511
     27          7           0        2.869831   -1.929158   -1.212700
     28          6           0        3.592530   -2.305301    0.012772
     29          1           0        3.491654   -3.376771    0.206412
     30          1           0        3.174323   -1.724499    0.848624
     31          6           0        3.593711   -0.897530   -1.965549
     32          1           0        3.847472   -1.271275   -2.965144
     33          1           0        2.958630   -0.011651   -2.054337
     34          7           0       -1.299619   -0.307715    0.860515
     35         16           0       -1.376796   -1.136223    2.260659
     36          8           0       -2.563205   -1.997808    2.230319
     37          8           0       -0.080730   -1.777990    2.499727
     38          6           0       -0.644104    2.704119    0.045003
     39          6           0       -0.170227    2.242960   -1.193027
     40          6           0       -0.965877    2.323019   -2.333835
     41          6           0       -2.253466    2.856654   -2.270833
     42          6           0       -2.738978    3.309776   -1.047743
     43          6           0       -1.936045    3.234664    0.090868
     44          1           0        0.802771    1.769181   -1.233189
     45          1           0       -0.571646    1.971399   -3.284368
     46          1           0       -2.868364    2.922981   -3.164216
     47          1           0       -3.739767    3.727473   -0.977559
     48          1           0       -2.322628    3.603847    1.038922
     49          8           0        0.672520    1.585838    1.905564
     50          1           0       -0.306416   -0.061289    0.558451
     51          6           0        1.795127    0.844871    1.260558
     52          8           0        1.375372    0.233894    0.169982
     53          8           0        2.187158   -0.034524    2.299994
     54          1           0        1.480187   -0.704097    2.348956
     55          6           0        3.011154    1.799454    1.115972
     56          1           0        2.988011    2.524437    1.939200
     57          1           0        3.894766    1.175449    1.300238
     58          6           0        0.211696    2.769261    1.313136
     59          1           0       -0.403648    3.255310    2.081338
     60          1           0        1.051751    3.453003    1.121674
     61          6           0       -1.581584    0.094655    3.526868
     62          1           0       -0.722226    0.765031    3.437322
     63          1           0       -2.520452    0.619598    3.341934
     64          1           0       -1.603946   -0.417746    4.490094
     65          6           0        3.190753    2.511608   -0.221687
     66          1           0        3.108258    1.774048   -1.028084
     67          1           0        2.387500    3.234858   -0.402934
     68          6           0        4.536112    3.231161   -0.305761
     69          1           0        4.666162    3.739397   -1.266296
     70          1           0        4.627296    3.982307    0.486505
     71          1           0        5.366711    2.526110   -0.182175
     72          6           0        5.027927   -1.896502   -0.300288
     73          1           0        5.612494   -1.738606    0.607916
     74          1           0        5.519339   -2.669088   -0.901620
     75          6           0        4.836478   -0.615017   -1.115662
     76          1           0        4.618069    0.214202   -0.438501
     77          1           0        5.703697   -0.349600   -1.724004
 ---------------------------------------------------------------------

 SCF Done:  E(RM062X) =  -1991.35891806     A.U. after   14 cycles

 The electronic state is 1-A.
 Alpha  occ. eigenvalues --  -90.14059 -19.61679 -19.61665 -19.58788 -19.56745
 Alpha  occ. eigenvalues --  -19.51399 -14.85127 -14.80458 -14.75484 -10.63386
 Alpha  occ. eigenvalues --  -10.62759 -10.62332 -10.62075 -10.60658 -10.59220
 Alpha  occ. eigenvalues --  -10.58700 -10.57927 -10.57884 -10.57067 -10.56869
 Alpha  occ. eigenvalues --  -10.56656 -10.55608 -10.55577 -10.55183 -10.55017
 Alpha  occ. eigenvalues --  -10.54769 -10.54718 -10.54651 -10.54492 -10.54330
 Alpha  occ. eigenvalues --  -10.54254 -10.54203 -10.53090 -10.51671 -10.51571
 Alpha  occ. eigenvalues --  -10.49792  -8.45038  -6.37254  -6.37233  -6.37076
 Alpha  occ. eigenvalues --   -1.21893  -1.13652  -1.13471  -1.10143  -1.09357
 Alpha  occ. eigenvalues --   -1.05909  -1.01596  -0.99410  -0.95683  -0.94941
 Alpha  occ. eigenvalues --   -0.93458  -0.90240  -0.88755  -0.85910  -0.85813
 Alpha  occ. eigenvalues --   -0.84789  -0.84649  -0.84323  -0.83016  -0.82608
 Alpha  occ. eigenvalues --   -0.76642  -0.76369  -0.75831  -0.74398  -0.72708
 Alpha  occ. eigenvalues --   -0.71568  -0.68339  -0.68288  -0.67915  -0.67150
 Alpha  occ. eigenvalues --   -0.66758  -0.65192  -0.64865  -0.63521  -0.60577
 Alpha  occ. eigenvalues --   -0.60407  -0.59798  -0.58846  -0.57833  -0.57551
 Alpha  occ. eigenvalues --   -0.57129  -0.56423  -0.55703  -0.55155  -0.54167
 Alpha  occ. eigenvalues --   -0.53456  -0.52631  -0.52392  -0.52354  -0.51874
 Alpha  occ. eigenvalues --   -0.51522  -0.51084  -0.50946  -0.49843  -0.49595
 Alpha  occ. eigenvalues --   -0.49159  -0.48803  -0.48203  -0.48107  -0.48070
 Alpha  occ. eigenvalues --   -0.47621  -0.47425  -0.46892  -0.46472  -0.46092
 Alpha  occ. eigenvalues --   -0.44924  -0.44666  -0.44084  -0.43883  -0.43248
 Alpha  occ. eigenvalues --   -0.42443  -0.42079  -0.41552  -0.41430  -0.41190
 Alpha  occ. eigenvalues --   -0.40877  -0.40444  -0.40020  -0.39852  -0.39491
 Alpha  occ. eigenvalues --   -0.39246  -0.39041  -0.38443  -0.37880  -0.37580
 Alpha  occ. eigenvalues --   -0.37354  -0.36724  -0.36571  -0.35679  -0.34873
 Alpha  occ. eigenvalues --   -0.34346  -0.33883  -0.31745  -0.30975  -0.29716
 Alpha  occ. eigenvalues --   -0.28886  -0.28556  -0.27575  -0.24997  -0.24529
 Alpha virt. eigenvalues --   -0.01421   0.00486   0.03619   0.03833   0.10195
 Alpha virt. eigenvalues --    0.11059   0.11583   0.12095   0.13218   0.13552
 Alpha virt. eigenvalues --    0.14206   0.14678   0.14814   0.15346   0.15599

 Mulliken charges:
               1
     1  C   -0.306070
     2  C   -0.306893
     3  C   -0.310200
     4  C   -0.059178
     5  C    0.057116
     6  C   -0.311816
     7  H    0.173723
     8  H    0.162838
     9  H    0.165110
    10  H    0.150580
    11  H    0.162919
    12  H    0.208414
    13  H    0.172500
    14  H    0.193580
    15  H    0.163330
    16  H    0.153715
    17  N   -0.432277
    18  C    0.069847
    19  C    0.064477
    20  C   -0.205086
    21  H    0.206982
    22  C   -0.209140
    23  H    0.245859
    24  C    0.450470
    25  H    0.190876
    26  H    0.211764
    27  N   -0.528978
    28  C   -0.175500
    29  H    0.169922
    30  H    0.236251
    31  C   -0.154009
    32  H    0.168286
    33  H    0.200575
    34  N   -0.817251
    35  S    1.253918
    36  O   -0.611789
    37  O   -0.609378
    38  C    0.090601
    39  C   -0.178090
    40  C   -0.188822
    41  C   -0.170533
    42  C   -0.163669
    43  C   -0.212087
    44  H    0.203524
    45  H    0.141186
    46  H    0.154554
    47  H    0.158217
    48  H    0.152150
    49  O   -0.547902
    50  H    0.449765
    51  C    0.727937
    52  O   -0.724460
    53  O   -0.718296
    54  H    0.445771
    55  C   -0.337590
    56  H    0.150360
    57  H    0.148656
    58  C   -0.094595
    59  H    0.141367
    60  H    0.146710
    61  C   -0.662675
    62  H    0.270875
    63  H    0.196311
    64  H    0.217302
    65  C   -0.295822
    66  H    0.141667
    67  H    0.146924
    68  C   -0.475852
    69  H    0.149513
    70  H    0.156200
    71  H    0.143847
    72  C   -0.331867
    73  H    0.187584
    74  H    0.163648
    75  C   -0.344280
    76  H    0.194541
    77  H    0.171844
 Sum of Mulliken charges =  -0.00000

 Dipole moment (field-independent basis, Debye):
    X=             -2.1183    Y=             -1.8967    Z=             -6.4852  Tot=              7.0812
 Quadrupole moment (field-independent basis, Debye-Ang):
   XX=           -204.7903   YY=           -223.2554   ZZ=           -219.8582
   XY=            -12.0906   XZ=             -5.2588   YZ=             10.1646

 Normal termination of Gaussian 16 at Thu Feb  7 16:59:20 2019.
