 Gaussian 16, Revision A.03,
 Gaussian 16:  ES64L-G16RevA.03 25-Dec-2016

 ------------------------------------------
 #p M062X/6-31G* em=gd3 force int=ultrafine
 ------------------------------------------

 -----
 Title
 -----
 Symbolic Z-matrix:
 Charge =  0 Multiplicity = 1

                         Standard orientation:
 ---------------------------------------------------------------------
 Center     Atomic      Atomic             Coordinates (Angstroms)
 Number     Number       Type             X           Y           Z
 ---------------------------------------------------------------------
      1          6           0       -4.863521    0.494985   -0.554633
      2          6           0       -5.038390   -0.811346   -1.334762
      3          6           0       -3.700304   -1.283199   -1.916277
      4          6           0       -2.702903   -1.473270   -0.778099
      5          6           0       -2.496437   -0.147938   -0.005363
      6          6           0       -3.829068    0.346886    0.564917
      7          1           0       -3.814618   -2.216359   -2.477950
      8          1           0       -5.437843   -1.587542   -0.668897
      9          1           0       -5.763481   -0.680221   -2.144005
     10          1           0       -4.532752    1.283696   -1.244029
     11          1           0       -5.823185    0.814858   -0.136106
     12          1           0       -3.086579   -2.226534   -0.082332
     13          1           0       -2.156913    0.596856   -0.736596
     14          1           0       -4.189244   -0.356729    1.322889
     15          1           0       -3.650665    1.311414    1.053175
     16          1           0       -3.339101   -0.513922   -2.611977
     17          7           0       -1.374584   -1.958286   -1.207470
     18          6           0       -0.690218   -1.315276   -2.191535
     19          6           0       -0.680393   -2.748208   -0.345837
     20          6           0        0.660821   -1.410316   -2.320261
     21          1           0       -1.279462   -0.693454   -2.853428
     22          6           0        0.672372   -2.878980   -0.400315
     23          1           0       -1.266241   -3.223810    0.433081
     24          6           0        1.420416   -2.119210   -1.341416
     25          1           0        1.148611   -0.870794   -3.121066
     26          1           0        1.157196   -3.472730    0.361503
     27          7           0        2.746971   -2.081813   -1.309864
     28          6           0        3.484761   -2.567139   -0.132611
     29          1           0        3.343204   -3.644119   -0.004783
     30          1           0        3.114874   -2.020482    0.746638
     31          6           0        3.511890   -1.047554   -2.026491
     32          1           0        3.768495   -1.402948   -3.032349
     33          1           0        2.913559   -0.135074   -2.078919
     34          7           0       -1.402726   -0.225296    0.948372
     35         16           0       -1.410308   -1.070767    2.347161
     36          8           0       -2.647289   -1.854390    2.369922
     37          8           0       -0.138855   -1.781071    2.484713
     38          6           0       -0.524897    2.653571   -0.085201
     39          6           0       -0.047555    2.065171   -1.265213
     40          6           0       -0.796364    2.135070   -2.439814
     41          6           0       -2.034407    2.776758   -2.463058
     42          6           0       -2.520024    3.357470   -1.293182
     43          6           0       -1.767048    3.295148   -0.120816
     44          1           0        0.887560    1.510020   -1.218850
     45          1           0       -0.402502    1.688307   -3.350754
     46          1           0       -2.610889    2.831011   -3.382471
     47          1           0       -3.482277    3.862174   -1.293427
     48          1           0       -2.153516    3.755696    0.786335
     49          8           0        0.725480    1.428075    1.711177
     50          1           0       -0.473696    0.148614    0.709337
     51          6           0        2.010827    0.773683    1.177874
     52          8           0        1.780848    0.188850    0.041781
     53          8           0        2.293928   -0.109878    2.248617
     54          1           0        1.587484   -0.779737    2.211984
     55          6           0        3.139055    1.829558    1.218727
     56          1           0        2.960662    2.525943    2.048249
     57          1           0        4.056864    1.286495    1.478471
     58          6           0        0.275510    2.658648    1.217686
     59          1           0       -0.381787    3.078539    1.993045
     60          1           0        1.109421    3.368172    1.114121
     61          6           0       -1.442272    0.159959    3.629113
     62          1           0       -0.552474    0.776826    3.470482
     63          1           0       -2.361610    0.738674    3.527608
     64          1           0       -1.408422   -0.358470    4.588854
     65          6           0        3.369823    2.587139   -0.086664
     66          1           0        3.620082    1.867692   -0.875050
     67          1           0        2.450508    3.078086   -0.426627
     68          6           0        4.478707    3.628570    0.051125
     69          1           0        4.666221    4.152486   -0.891311
     70          1           0        4.215797    4.379405    0.804820
     71          1           0        5.416969    3.161216    0.370658
     72          6           0        4.926183   -2.185260   -0.447271
     73          1           0        5.535099   -2.120603    0.456287
     74          1           0        5.377980   -2.921129   -1.122077
     75          6           0        4.746922   -0.837942   -1.147932
     76          1           0        4.500914   -0.078348   -0.400544
     77          1           0        5.619253   -0.517704   -1.721659
 ---------------------------------------------------------------------

 SCF Done:  E(RM062X) =  -1991.35604621     A.U. after   15 cycles

 The electronic state is 1-A.
 Alpha  occ. eigenvalues --  -90.14806 -19.62383 -19.62195 -19.58552 -19.56717
 Alpha  occ. eigenvalues --  -19.50444 -14.85260 -14.80131 -14.76790 -10.63233
 Alpha  occ. eigenvalues --  -10.62690 -10.62196 -10.61977 -10.61089 -10.59881
 Alpha  occ. eigenvalues --  -10.57888 -10.57835 -10.57669 -10.57060 -10.56975
 Alpha  occ. eigenvalues --  -10.56912 -10.56213 -10.55889 -10.55094 -10.55032
 Alpha  occ. eigenvalues --  -10.54945 -10.54783 -10.54727 -10.54684 -10.54580
 Alpha  occ. eigenvalues --  -10.54433 -10.54202 -10.53017 -10.51101 -10.51002
 Alpha  occ. eigenvalues --  -10.49420  -8.45774  -6.38001  -6.37957  -6.37813
 Alpha  occ. eigenvalues --   -1.22586  -1.13555  -1.12953  -1.10816  -1.08990
 Alpha  occ. eigenvalues --   -1.05748  -1.02519  -0.99380  -0.95886  -0.95133
 Alpha  occ. eigenvalues --   -0.93532  -0.90212  -0.88642  -0.86492  -0.85316
 Alpha  occ. eigenvalues --   -0.84914  -0.84864  -0.83805  -0.83203  -0.83091
 Alpha  occ. eigenvalues --   -0.76636  -0.75911  -0.75637  -0.74256  -0.73269
 Alpha  occ. eigenvalues --   -0.71805  -0.68229  -0.68172  -0.67796  -0.67526
 Alpha  occ. eigenvalues --   -0.66480  -0.65490  -0.64812  -0.63424  -0.60491
 Alpha  occ. eigenvalues --   -0.60325  -0.59942  -0.59508  -0.57867  -0.57687
 Alpha  occ. eigenvalues --   -0.57240  -0.56471  -0.55778  -0.55126  -0.54350
 Alpha  occ. eigenvalues --   -0.53601  -0.53065  -0.52694  -0.52475  -0.52082
 Alpha  occ. eigenvalues --   -0.51698  -0.50823  -0.50231  -0.49918  -0.49340
 Alpha  occ. eigenvalues --   -0.49193  -0.48995  -0.48393  -0.48137  -0.47944
 Alpha  occ. eigenvalues --   -0.47737  -0.47614  -0.47167  -0.46159  -0.45855
 Alpha  occ. eigenvalues --   -0.45172  -0.44985  -0.44348  -0.43863  -0.43248
 Alpha  occ. eigenvalues --   -0.42541  -0.42273  -0.41128  -0.40986  -0.40856
 Alpha  occ. eigenvalues --   -0.40676  -0.40472  -0.40010  -0.39844  -0.39362
 Alpha  occ. eigenvalues --   -0.39210  -0.38947  -0.38513  -0.38351  -0.37864
 Alpha  occ. eigenvalues --   -0.37308  -0.36525  -0.36407  -0.36084  -0.34988
 Alpha  occ. eigenvalues --   -0.34459  -0.34237  -0.31838  -0.31283  -0.29930
 Alpha  occ. eigenvalues --   -0.29071  -0.28756  -0.27751  -0.24026  -0.23869
 Alpha virt. eigenvalues --   -0.01311   0.00489   0.03302   0.03616   0.10128
 Alpha virt. eigenvalues --    0.10602   0.11339   0.12523   0.13176   0.13253
 Alpha virt. eigenvalues --    0.14102   0.14405   0.14882   0.15450   0.15555

 Mulliken charges:
               1
     1  C   -0.306410
     2  C   -0.307789
     3  C   -0.310687
     4  C   -0.058958
     5  C    0.059916
     6  C   -0.308095
     7  H    0.175514
     8  H    0.163196
     9  H    0.166868
    10  H    0.151041
    11  H    0.165096
    12  H    0.206747
    13  H    0.175749
    14  H    0.194091
    15  H    0.162591
    16  H    0.156167
    17  N   -0.437162
    18  C    0.075141
    19  C    0.073606
    20  C   -0.206355
    21  H    0.204010
    22  C   -0.216632
    23  H    0.243083
    24  C    0.449653
    25  H    0.192356
    26  H    0.210302
    27  N   -0.519944
    28  C   -0.167528
    29  H    0.167216
    30  H    0.224151
    31  C   -0.147710
    32  H    0.161090
    33  H    0.205921
    34  N   -0.800695
    35  S    1.242670
    36  O   -0.603470
    37  O   -0.592916
    38  C    0.058000
    39  C   -0.195925
    40  C   -0.191769
    41  C   -0.172457
    42  C   -0.165446
    43  C   -0.206345
    44  H    0.229609
    45  H    0.141236
    46  H    0.155689
    47  H    0.159214
    48  H    0.153222
    49  O   -0.579931
    50  H    0.440979
    51  C    0.718472
    52  O   -0.706525
    53  O   -0.708586
    54  H    0.432743
    55  C   -0.340231
    56  H    0.143740
    57  H    0.150064
    58  C   -0.083284
    59  H    0.133573
    60  H    0.153941
    61  C   -0.664975
    62  H    0.272904
    63  H    0.199728
    64  H    0.221540
    65  C   -0.285876
    66  H    0.139471
    67  H    0.141051
    68  C   -0.474253
    69  H    0.147789
    70  H    0.150230
    71  H    0.147722
    72  C   -0.333647
    73  H    0.185311
    74  H    0.160306
    75  C   -0.339499
    76  H    0.203886
    77  H    0.166505
 Sum of Mulliken charges =  -0.00000

 Dipole moment (field-independent basis, Debye):
    X=             -3.5631    Y=             -1.9114    Z=             -5.8222  Tot=              7.0885
 Quadrupole moment (field-independent basis, Debye-Ang):
   XX=           -208.2893   YY=           -221.8456   ZZ=           -218.9743
   XY=            -13.1903   XZ=             -4.2626   YZ=             10.5718

 Normal termination of Gaussian 16 at Thu Feb  7 11:14:25 2019.
