 Gaussian 16, Revision A.03,
 Gaussian 16:  ES64L-G16RevA.03 25-Dec-2016

 ------------------------------------------
 #p M062X/6-31G* em=gd3 force int=ultrafine
 ------------------------------------------

 -----
 Title
 -----
 Symbolic Z-matrix:
 Charge =  0 Multiplicity = 1

                         Standard orientation:
 ---------------------------------------------------------------------
 Center     Atomic      Atomic             Coordinates (Angstroms)
 Number     Number       Type             X           Y           Z
 ---------------------------------------------------------------------
      1          6           0       -4.867995    0.056788   -0.422659
      2          6           0       -4.900671   -1.225827   -1.259330
      3          6           0       -3.518350   -1.526950   -1.850849
      4          6           0       -2.512863   -1.648829   -0.710571
      5          6           0       -2.422710   -0.326814    0.103513
      6          6           0       -3.811454   -0.018662    0.683710
      7          1           0       -3.533994   -2.445882   -2.448096
      8          1           0       -5.214192   -2.068598   -0.629308
      9          1           0       -5.634793   -1.139969   -2.067187
     10          1           0       -4.631189    0.904935   -1.080437
     11          1           0       -5.857146    0.249700    0.006264
     12          1           0       -2.822452   -2.453169   -0.038056
     13          1           0       -2.213158    0.456564   -0.639899
     14          1           0       -4.076837   -0.792448    1.415334
     15          1           0       -3.746870    0.938658    1.215070
     16          1           0       -3.243487   -0.696578   -2.515942
     17          7           0       -1.145607   -2.006741   -1.154087
     18          6           0       -0.536691   -1.316342   -2.145247
     19          6           0       -0.388216   -2.761795   -0.323843
     20          6           0        0.816674   -1.340559   -2.324243
     21          1           0       -1.182293   -0.719595   -2.776669
     22          6           0        0.970837   -2.831965   -0.437059
     23          1           0       -0.921643   -3.265043    0.475384
     24          6           0        1.640597   -2.038880   -1.398869
     25          1           0        1.245825   -0.772035   -3.138731
     26          1           0        1.509994   -3.410681    0.299777
     27          7           0        2.976681   -1.939452   -1.418546
     28          6           0        3.778510   -2.441973   -0.296191
     29          1           0        3.725867   -3.533306   -0.240123
     30          1           0        3.390080   -2.016287    0.639727
     31          6           0        3.666413   -0.855149   -2.133640
     32          1           0        3.923392   -1.176486   -3.150518
     33          1           0        3.021319    0.026275   -2.177435
     34          7           0       -1.299319   -0.282058    1.017264
     35         16           0       -1.259685   -1.229256    2.280020
     36          8           0       -2.246161   -2.332307    2.242797
     37          8           0        0.140866   -1.673146    2.520783
     38          6           0       -1.156816    2.853271   -0.174200
     39          6           0       -0.415313    2.193340   -1.159675
     40          6           0       -0.928906    2.068302   -2.448877
     41          6           0       -2.195332    2.562452   -2.761631
     42          6           0       -2.945411    3.198997   -1.774707
     43          6           0       -2.422897    3.345221   -0.491821
     44          1           0        0.538883    1.740536   -0.896076
     45          1           0       -0.337253    1.574405   -3.216460
     46          1           0       -2.595807    2.454496   -3.765351
     47          1           0       -3.937399    3.579275   -2.000842
     48          1           0       -3.010334    3.837108    0.280664
     49          8           0        0.208788    1.939598    1.613788
     50          1           0       -0.278496    1.103928    1.355530
     51          6           0        2.435870    0.659824    1.238280
     52          8           0        2.132554    0.216456    0.143598
     53          8           0        2.188665    0.037796    2.378575
     54          1           0        1.501016   -0.674025    2.255940
     55          6           0        3.191247    1.953353    1.434781
     56          1           0        2.721855    2.473442    2.274594
     57          1           0        4.216118    1.705033    1.746503
     58          6           0       -0.602415    3.010700    1.227003
     59          1           0       -1.441534    3.165183    1.925842
     60          1           0        0.018841    3.916137    1.274541
     61          6           0       -1.647798   -0.214622    3.703301
     62          1           0       -0.952831    0.628336    3.693798
     63          1           0       -2.677759    0.133212    3.603166
     64          1           0       -1.526192   -0.812145    4.607846
     65          6           0        3.195688    2.821191    0.183278
     66          1           0        3.619018    2.254634   -0.655141
     67          1           0        2.156734    3.037665   -0.089001
     68          6           0        3.967228    4.122005    0.382976
     69          1           0        3.967096    4.728544   -0.527325
     70          1           0        3.522192    4.720591    1.184692
     71          1           0        5.009966    3.926038    0.656064
     72          6           0        5.183141   -1.930270   -0.603605
     73          1           0        5.789759   -1.839390    0.299616
     74          1           0        5.690878   -2.612832   -1.292875
     75          6           0        4.909891   -0.585628   -1.281893
     76          1           0        4.658116    0.164399   -0.526455
     77          1           0        5.750128   -0.218995   -1.875072
 ---------------------------------------------------------------------

 SCF Done:  E(RM062X) =  -1991.38967830     A.U. after   15 cycles

 The electronic state is 1-A.
 Alpha  occ. eigenvalues --  -90.10373 -19.63379 -19.60095 -19.59286 -19.58592
 Alpha  occ. eigenvalues --  -19.58359 -14.84810 -14.80517 -14.69408 -10.65456
 Alpha  occ. eigenvalues --  -10.63237 -10.62395 -10.61514 -10.59148 -10.59096
 Alpha  occ. eigenvalues --  -10.59033 -10.57820 -10.57420 -10.56836 -10.56649
 Alpha  occ. eigenvalues --  -10.56060 -10.55763 -10.55503 -10.54968 -10.54917
 Alpha  occ. eigenvalues --  -10.54861 -10.54582 -10.54542 -10.54493 -10.53757
 Alpha  occ. eigenvalues --  -10.53746 -10.53558 -10.53144 -10.53010 -10.52628
 Alpha  occ. eigenvalues --  -10.52556  -8.41338  -6.33576  -6.33483  -6.33403
 Alpha  occ. eigenvalues --   -1.19126  -1.17893  -1.12942  -1.10323  -1.09852
 Alpha  occ. eigenvalues --   -1.09156  -1.06161  -0.97547  -0.95253  -0.94813
 Alpha  occ. eigenvalues --   -0.92188  -0.89856  -0.88590  -0.88034  -0.85015
 Alpha  occ. eigenvalues --   -0.84957  -0.83648  -0.83504  -0.83301  -0.80202
 Alpha  occ. eigenvalues --   -0.79119  -0.76359  -0.75663  -0.74680  -0.70943
 Alpha  occ. eigenvalues --   -0.70192  -0.69068  -0.68728  -0.68364  -0.67998
 Alpha  occ. eigenvalues --   -0.65777  -0.64724  -0.63949  -0.63427  -0.61635
 Alpha  occ. eigenvalues --   -0.60273  -0.59398  -0.58970  -0.58361  -0.56171
 Alpha  occ. eigenvalues --   -0.55456  -0.55159  -0.55061  -0.54061  -0.53674
 Alpha  occ. eigenvalues --   -0.53438  -0.53078  -0.52375  -0.51968  -0.51724
 Alpha  occ. eigenvalues --   -0.51151  -0.51000  -0.50610  -0.50193  -0.49829
 Alpha  occ. eigenvalues --   -0.49610  -0.49468  -0.48839  -0.48357  -0.48003
 Alpha  occ. eigenvalues --   -0.47775  -0.47171  -0.46977  -0.46929  -0.45941
 Alpha  occ. eigenvalues --   -0.45845  -0.45246  -0.43957  -0.43651  -0.43422
 Alpha  occ. eigenvalues --   -0.42759  -0.42453  -0.42255  -0.41916  -0.41898
 Alpha  occ. eigenvalues --   -0.41157  -0.40841  -0.40578  -0.39915  -0.39522
 Alpha  occ. eigenvalues --   -0.39368  -0.39194  -0.38745  -0.38377  -0.37833
 Alpha  occ. eigenvalues --   -0.37340  -0.36243  -0.35892  -0.35362  -0.35113
 Alpha  occ. eigenvalues --   -0.34402  -0.33128  -0.32094  -0.31713  -0.31502
 Alpha  occ. eigenvalues --   -0.29843  -0.28888  -0.28320  -0.27499  -0.25423
 Alpha virt. eigenvalues --   -0.01022   0.00647   0.03316   0.03802   0.09089
 Alpha virt. eigenvalues --    0.10139   0.10927   0.11780   0.13002   0.13456
 Alpha virt. eigenvalues --    0.13844   0.14228   0.15150   0.15507   0.15748

 Mulliken charges:
               1
     1  C   -0.303944
     2  C   -0.304193
     3  C   -0.309741
     4  C   -0.073385
     5  C    0.062183
     6  C   -0.305243
     7  H    0.165875
     8  H    0.160913
     9  H    0.159154
    10  H    0.146487
    11  H    0.156646
    12  H    0.213031
    13  H    0.141481
    14  H    0.179631
    15  H    0.149079
    16  H    0.150965
    17  N   -0.424522
    18  C    0.100295
    19  C    0.084096
    20  C   -0.227931
    21  H    0.205294
    22  C   -0.227194
    23  H    0.264301
    24  C    0.428452
    25  H    0.188241
    26  H    0.206857
    27  N   -0.529157
    28  C   -0.157283
    29  H    0.178414
    30  H    0.199155
    31  C   -0.147222
    32  H    0.169539
    33  H    0.196162
    34  N   -0.754996
    35  S    1.249368
    36  O   -0.647099
    37  O   -0.670762
    38  C    0.048731
    39  C   -0.177214
    40  C   -0.187004
    41  C   -0.170006
    42  C   -0.162255
    43  C   -0.197673
    44  H    0.202465
    45  H    0.139428
    46  H    0.156414
    47  H    0.161803
    48  H    0.156526
    49  O   -0.711120
    50  H    0.480849
    51  C    0.645514
    52  O   -0.523457
    53  O   -0.644422
    54  H    0.485610
    55  C   -0.367253
    56  H    0.200169
    57  H    0.163935
    58  C   -0.068185
    59  H    0.128669
    60  H    0.159470
    61  C   -0.656046
    62  H    0.218754
    63  H    0.188150
    64  H    0.208064
    65  C   -0.287037
    66  H    0.143291
    67  H    0.167255
    68  C   -0.480417
    69  H    0.158365
    70  H    0.158607
    71  H    0.149915
    72  C   -0.337394
    73  H    0.184035
    74  H    0.170067
    75  C   -0.335652
    76  H    0.182780
    77  H    0.173321
 Sum of Mulliken charges =  -0.00000

 Dipole moment (field-independent basis, Debye):
    X=              1.5621    Y=             -0.4044    Z=             -6.5039  Tot=              6.7010
 Quadrupole moment (field-independent basis, Debye-Ang):
   XX=           -197.9412   YY=           -223.3933   ZZ=           -221.7462
   XY=            -12.0915   XZ=             -1.3350   YZ=             12.3364

 Normal termination of Gaussian 16 at Fri Feb  8 00:50:05 2019.
