 Gaussian 16, Revision A.03,
 Gaussian 16:  ES64L-G16RevA.03 25-Dec-2016

 ------------------------------------------
 #p M062X/6-31G* em=gd3 force int=ultrafine
 ------------------------------------------

 -----
 Title
 -----
 Symbolic Z-matrix:
 Charge =  0 Multiplicity = 1

                         Standard orientation:
 ---------------------------------------------------------------------
 Center     Atomic      Atomic             Coordinates (Angstroms)
 Number     Number       Type             X           Y           Z
 ---------------------------------------------------------------------
      1          6           0       -4.843947    0.431933   -0.513831
      2          6           0       -4.990280   -0.840499   -1.353367
      3          6           0       -3.638393   -1.260923   -1.942396
      4          6           0       -2.648097   -1.486802   -0.803910
      5          6           0       -2.465095   -0.197467    0.036764
      6          6           0       -3.816710    0.249711    0.608074
      7          1           0       -3.731959   -2.168331   -2.549059
      8          1           0       -5.382087   -1.653158   -0.727610
      9          1           0       -5.709913   -0.685760   -2.163642
     10          1           0       -4.518317    1.254982   -1.164781
     11          1           0       -5.813314    0.718822   -0.093317
     12          1           0       -3.023322   -2.281008   -0.150683
     13          1           0       -2.134104    0.582059   -0.662647
     14          1           0       -4.171744   -0.492401    1.332120
     15          1           0       -3.660614    1.195915    1.139034
     16          1           0       -3.286713   -0.452076   -2.597000
     17          7           0       -1.307559   -1.931259   -1.248409
     18          6           0       -0.640007   -1.251450   -2.214114
     19          6           0       -0.599662   -2.734436   -0.414763
     20          6           0        0.713177   -1.328916   -2.357983
     21          1           0       -1.240200   -0.614516   -2.850899
     22          6           0        0.756030   -2.853743   -0.487827
     23          1           0       -1.173860   -3.239295    0.354453
     24          6           0        1.487098   -2.068127   -1.417223
     25          1           0        1.186438   -0.759106   -3.146639
     26          1           0        1.251072   -3.465663    0.253004
     27          7           0        2.819749   -2.019402   -1.397507
     28          6           0        3.567840   -2.534240   -0.240813
     29          1           0        3.451413   -3.618087   -0.154946
     30          1           0        3.185458   -2.045147    0.666156
     31          6           0        3.570507   -0.954513   -2.085632
     32          1           0        3.835624   -1.279027   -3.099029
     33          1           0        2.963162   -0.047251   -2.126403
     34          7           0       -1.362038   -0.323019    0.974025
     35         16           0       -1.402416   -1.221644    2.323255
     36          8           0       -2.581199   -2.095838    2.280684
     37          8           0       -0.091631   -1.867604    2.491157
     38          6           0       -0.677577    2.749122   -0.066736
     39          6           0       -0.123584    2.105083   -1.182457
     40          6           0       -0.781989    2.144965   -2.410474
     41          6           0       -2.016121    2.785719   -2.536706
     42          6           0       -2.582592    3.402755   -1.423488
     43          6           0       -1.909997    3.386250   -0.203168
     44          1           0        0.802038    1.543190   -1.061666
     45          1           0       -0.331487    1.670315   -3.280642
     46          1           0       -2.529623    2.809726   -3.493457
     47          1           0       -3.545795    3.898387   -1.501981
     48          1           0       -2.350405    3.864196    0.669163
     49          8           0        0.417309    1.419564    1.624919
     50          1           0       -0.566627    0.444068    1.071201
     51          6           0        2.235043    0.642904    1.177959
     52          8           0        2.044835    0.156361    0.060254
     53          8           0        2.227870   -0.132789    2.290081
     54          1           0        1.532578   -0.813709    2.176710
     55          6           0        3.085415    1.882141    1.387552
     56          1           0        2.675414    2.483150    2.205476
     57          1           0        4.057740    1.507093    1.738513
     58          6           0        0.014341    2.689857    1.287834
     59          1           0       -0.685931    3.101894    2.040160
     60          1           0        0.867842    3.397851    1.272824
     61          6           0       -1.531898   -0.048479    3.657505
     62          1           0       -0.694656    0.642648    3.510192
     63          1           0       -2.490537    0.466387    3.575506
     64          1           0       -1.453440   -0.589329    4.601720
     65          6           0        3.292451    2.711197    0.123159
     66          1           0        3.673186    2.058877   -0.671578
     67          1           0        2.333688    3.094288   -0.243652
     68          6           0        4.257592    3.871604    0.355867
     69          1           0        4.431487    4.441849   -0.561637
     70          1           0        3.866604    4.562728    1.110438
     71          1           0        5.227032    3.507628    0.714174
     72          6           0        5.001808   -2.106565   -0.532768
     73          1           0        5.604130   -2.055056    0.376187
     74          1           0        5.473998   -2.812441   -1.224449
     75          6           0        4.802005   -0.745047   -1.200615
     76          1           0        4.551742   -0.001318   -0.438853
     77          1           0        5.669978   -0.401067   -1.766720
 ---------------------------------------------------------------------

 SCF Done:  E(RM062X) =  -1991.35764187     A.U. after   15 cycles

 The electronic state is 1-A.
 Alpha  occ. eigenvalues --  -90.13436 -19.61341 -19.61073 -19.60860 -19.56345
 Alpha  occ. eigenvalues --  -19.53936 -14.85331 -14.80516 -14.74185 -10.64297
 Alpha  occ. eigenvalues --  -10.63504 -10.62811 -10.62275 -10.60645 -10.58913
 Alpha  occ. eigenvalues --  -10.58625 -10.58531 -10.58053 -10.57234 -10.56517
 Alpha  occ. eigenvalues --  -10.55484 -10.55453 -10.55313 -10.55041 -10.54952
 Alpha  occ. eigenvalues --  -10.54546 -10.54541 -10.54477 -10.54426 -10.54010
 Alpha  occ. eigenvalues --  -10.53784 -10.53384 -10.52930 -10.52069 -10.51835
 Alpha  occ. eigenvalues --  -10.51579  -8.44439  -6.36659  -6.36603  -6.36498
 Alpha  occ. eigenvalues --   -1.21214  -1.15939  -1.13545  -1.09471  -1.09389
 Alpha  occ. eigenvalues --   -1.06259  -1.03581  -1.00532  -0.95636  -0.94508
 Alpha  occ. eigenvalues --   -0.93383  -0.90294  -0.88819  -0.86777  -0.85584
 Alpha  occ. eigenvalues --   -0.84601  -0.84420  -0.83723  -0.82786  -0.82163
 Alpha  occ. eigenvalues --   -0.77671  -0.76734  -0.75873  -0.72439  -0.71895
 Alpha  occ. eigenvalues --   -0.71457  -0.68478  -0.68390  -0.67847  -0.67223
 Alpha  occ. eigenvalues --   -0.66506  -0.64885  -0.64197  -0.63321  -0.61339
 Alpha  occ. eigenvalues --   -0.60420  -0.60128  -0.58750  -0.58187  -0.57285
 Alpha  occ. eigenvalues --   -0.56731  -0.56379  -0.55084  -0.54289  -0.53797
 Alpha  occ. eigenvalues --   -0.53332  -0.52715  -0.52351  -0.52062  -0.52018
 Alpha  occ. eigenvalues --   -0.51475  -0.51136  -0.50797  -0.50252  -0.49895
 Alpha  occ. eigenvalues --   -0.49751  -0.48694  -0.48425  -0.48245  -0.47772
 Alpha  occ. eigenvalues --   -0.47412  -0.47206  -0.47076  -0.46259  -0.46139
 Alpha  occ. eigenvalues --   -0.45643  -0.44983  -0.44650  -0.43652  -0.43254
 Alpha  occ. eigenvalues --   -0.42512  -0.42251  -0.41786  -0.41675  -0.41243
 Alpha  occ. eigenvalues --   -0.41055  -0.40539  -0.40023  -0.39850  -0.39630
 Alpha  occ. eigenvalues --   -0.39481  -0.38738  -0.38282  -0.38064  -0.37816
 Alpha  occ. eigenvalues --   -0.37662  -0.37368  -0.36785  -0.36257  -0.35320
 Alpha  occ. eigenvalues --   -0.34684  -0.34015  -0.33105  -0.29933  -0.29353
 Alpha  occ. eigenvalues --   -0.29115  -0.28560  -0.28091  -0.25846  -0.24637
 Alpha virt. eigenvalues --   -0.01489   0.00323   0.03720   0.04406   0.10210
 Alpha virt. eigenvalues --    0.11074   0.11406   0.11957   0.12881   0.13434
 Alpha virt. eigenvalues --    0.13937   0.13977   0.14863   0.15355   0.15411

 Mulliken charges:
               1
     1  C   -0.306838
     2  C   -0.306831
     3  C   -0.311579
     4  C   -0.064738
     5  C    0.069830
     6  C   -0.307166
     7  H    0.172379
     8  H    0.162342
     9  H    0.164835
    10  H    0.152397
    11  H    0.162741
    12  H    0.209191
    13  H    0.169422
    14  H    0.188004
    15  H    0.161107
    16  H    0.156486
    17  N   -0.431862
    18  C    0.090103
    19  C    0.090146
    20  C   -0.218967
    21  H    0.206519
    22  C   -0.225558
    23  H    0.249886
    24  C    0.435055
    25  H    0.192409
    26  H    0.209168
    27  N   -0.520315
    28  C   -0.161162
    29  H    0.173317
    30  H    0.207010
    31  C   -0.146951
    32  H    0.166640
    33  H    0.201389
    34  N   -0.819471
    35  S    1.243772
    36  O   -0.612285
    37  O   -0.618487
    38  C    0.057262
    39  C   -0.195866
    40  C   -0.190599
    41  C   -0.175774
    42  C   -0.162379
    43  C   -0.206505
    44  H    0.214261
    45  H    0.135291
    46  H    0.152793
    47  H    0.157083
    48  H    0.153839
    49  O   -0.685310
    50  H    0.456465
    51  C    0.675902
    52  O   -0.574046
    53  O   -0.660673
    54  H    0.459937
    55  C   -0.347917
    56  H    0.181074
    57  H    0.154243
    58  C   -0.037630
    59  H    0.097015
    60  H    0.116783
    61  C   -0.671464
    62  H    0.266969
    63  H    0.197081
    64  H    0.216682
    65  C   -0.290620
    66  H    0.141435
    67  H    0.159851
    68  C   -0.478102
    69  H    0.154091
    70  H    0.156200
    71  H    0.148653
    72  C   -0.334715
    73  H    0.184933
    74  H    0.165484
    75  C   -0.336457
    76  H    0.192717
    77  H    0.170073
 Sum of Mulliken charges =  -0.00000

 Dipole moment (field-independent basis, Debye):
    X=             -0.9484    Y=             -2.0848    Z=             -6.1311  Tot=              6.5449
 Quadrupole moment (field-independent basis, Debye-Ang):
   XX=           -202.1571   YY=           -225.4726   ZZ=           -219.5926
   XY=            -11.8713   XZ=             -2.4361   YZ=             10.5297

 Normal termination of Gaussian 16 at Thu Feb  7 19:15:34 2019.
