 Gaussian 16, Revision A.03,
 Gaussian 16:  ES64L-G16RevA.03 25-Dec-2016

 ------------------------------------------
 #p M062X/6-31G* em=gd3 force int=ultrafine
 ------------------------------------------

 -----
 Title
 -----
 Symbolic Z-matrix:
 Charge =  0 Multiplicity = 1

                         Standard orientation:
 ---------------------------------------------------------------------
 Center     Atomic      Atomic             Coordinates (Angstroms)
 Number     Number       Type             X           Y           Z
 ---------------------------------------------------------------------
      1          6           0       -4.782524    0.361295   -0.613321
      2          6           0       -4.936690   -0.933329   -1.417122
      3          6           0       -3.591666   -1.370981   -2.009929
      4          6           0       -2.596124   -1.562025   -0.871689
      5          6           0       -2.395149   -0.240479   -0.084822
      6          6           0       -3.736848    0.219222    0.497203
      7          1           0       -3.691287   -2.296794   -2.586685
      8          1           0       -5.319604   -1.729521   -0.765315
      9          1           0       -5.666840   -0.799528   -2.221456
     10          1           0       -4.476923    1.168872   -1.291234
     11          1           0       -5.745697    0.651400   -0.180961
     12          1           0       -2.976707   -2.322342   -0.182634
     13          1           0       -2.075732    0.517106   -0.812031
     14          1           0       -4.080973   -0.504202    1.243831
     15          1           0       -3.579759    1.180014    0.998704
     16          1           0       -3.244369   -0.584052   -2.693054
     17          7           0       -1.260056   -2.031462   -1.293643
     18          6           0       -0.574755   -1.364814   -2.259711
     19          6           0       -0.561689   -2.794317   -0.410028
     20          6           0        0.782819   -1.402838   -2.344746
     21          1           0       -1.169649   -0.771303   -2.942914
     22          6           0        0.796792   -2.859028   -0.413824
     23          1           0       -1.153168   -3.294048    0.349469
     24          6           0        1.535695   -2.057570   -1.324495
     25          1           0        1.271941   -0.850342   -3.135334
     26          1           0        1.283104   -3.423703    0.368940
     27          7           0        2.854951   -1.930599   -1.231520
     28          6           0        3.577759   -2.323098   -0.011275
     29          1           0        3.475873   -3.396773    0.169041
     30          1           0        3.160788   -1.751765    0.831574
     31          6           0        3.578859   -0.888115   -1.969652
     32          1           0        3.832966   -1.247692   -2.974333
     33          1           0        2.943372   -0.001360   -2.044880
     34          7           0       -1.292489   -0.314983    0.860406
     35         16           0       -1.364048   -1.154098    2.254764
     36          8           0       -2.552535   -2.012775    2.223061
     37          8           0       -0.067845   -1.799942    2.481488
     38          6           0       -0.636863    2.701960    0.052700
     39          6           0       -0.162597    2.240464   -1.185302
     40          6           0       -0.955942    2.326375   -2.327532
     41          6           0       -2.241081    2.866567   -2.266229
     42          6           0       -2.726472    3.320984   -1.043406
     43          6           0       -1.926189    3.239582    0.096712
     44          1           0        0.808675    1.761688   -1.224523
     45          1           0       -0.561328    1.974839   -3.278547
     46          1           0       -2.853740    2.937555   -3.160835
     47          1           0       -3.724932    3.744599   -0.974690
     48          1           0       -2.312774    3.609548    1.044578
     49          8           0        0.677245    1.573340    1.908659
     50          1           0       -0.301450   -0.066418    0.556837
     51          6           0        1.804131    0.838155    1.263903
     52          8           0        1.388898    0.229356    0.170624
     53          8           0        2.194802   -0.043554    2.301052
     54          1           0        1.491626   -0.717766    2.341792
     55          6           0        3.016944    1.797975    1.125428
     56          1           0        2.989248    2.519855    1.951544
     57          1           0        3.902887    1.177697    1.309240
     58          6           0        0.215180    2.759677    1.323699
     59          1           0       -0.403951    3.238399    2.093192
     60          1           0        1.053710    3.447075    1.140187
     61          6           0       -1.559968    0.066279    3.532443
     62          1           0       -0.700322    0.736399    3.443877
     63          1           0       -2.499140    0.594003    3.357481
     64          1           0       -1.577653   -0.454600    4.491184
     65          6           0        3.195377    2.516663   -0.208912
     66          1           0        3.120245    1.782353   -1.019541
     67          1           0        2.387279    3.235130   -0.389120
     68          6           0        4.535418    3.245451   -0.284825
     69          1           0        4.664625    3.759519   -1.242367
     70          1           0        4.619380    3.993080    0.511928
     71          1           0        5.370128    2.544718   -0.162021
     72          6           0        5.013162   -1.910913   -0.319352
     73          1           0        5.598514   -1.766874    0.590631
     74          1           0        5.503476   -2.674842   -0.932583
     75          6           0        4.821127   -0.617393   -1.115289
     76          1           0        4.601000    0.200992   -0.425528
     77          1           0        5.688325   -0.341957   -1.719206
 ---------------------------------------------------------------------

 SCF Done:  E(RM062X) =  -1991.35888638     A.U. after   14 cycles

 The electronic state is 1-A.
 Alpha  occ. eigenvalues --  -90.14076 -19.61695 -19.61676 -19.58769 -19.56735
 Alpha  occ. eigenvalues --  -19.51376 -14.85132 -14.80455 -14.75521 -10.63392
 Alpha  occ. eigenvalues --  -10.62765 -10.62318 -10.62094 -10.60667 -10.59238
 Alpha  occ. eigenvalues --  -10.58656 -10.57943 -10.57890 -10.57083 -10.56868
 Alpha  occ. eigenvalues --  -10.56660 -10.55616 -10.55579 -10.55164 -10.54980
 Alpha  occ. eigenvalues --  -10.54792 -10.54729 -10.54674 -10.54523 -10.54352
 Alpha  occ. eigenvalues --  -10.54276 -10.54226 -10.53108 -10.51653 -10.51559
 Alpha  occ. eigenvalues --  -10.49781  -8.45055  -6.37270  -6.37249  -6.37092
 Alpha  occ. eigenvalues --   -1.21906  -1.13651  -1.13481  -1.10158  -1.09353
 Alpha  occ. eigenvalues --   -1.05909  -1.01614  -0.99392  -0.95691  -0.94950
 Alpha  occ. eigenvalues --   -0.93462  -0.90250  -0.88752  -0.85906  -0.85819
 Alpha  occ. eigenvalues --   -0.84797  -0.84659  -0.84304  -0.83026  -0.82623
 Alpha  occ. eigenvalues --   -0.76644  -0.76354  -0.75830  -0.74402  -0.72720
 Alpha  occ. eigenvalues --   -0.71580  -0.68332  -0.68278  -0.67919  -0.67156
 Alpha  occ. eigenvalues --   -0.66757  -0.65199  -0.64865  -0.63519  -0.60579
 Alpha  occ. eigenvalues --   -0.60405  -0.59798  -0.58870  -0.57824  -0.57557
 Alpha  occ. eigenvalues --   -0.57136  -0.56424  -0.55718  -0.55158  -0.54170
 Alpha  occ. eigenvalues --   -0.53471  -0.52637  -0.52400  -0.52364  -0.51887
 Alpha  occ. eigenvalues --   -0.51528  -0.51073  -0.50929  -0.49845  -0.49593
 Alpha  occ. eigenvalues --   -0.49158  -0.48807  -0.48200  -0.48108  -0.48072
 Alpha  occ. eigenvalues --   -0.47629  -0.47432  -0.46896  -0.46468  -0.46093
 Alpha  occ. eigenvalues --   -0.44920  -0.44679  -0.44096  -0.43886  -0.43249
 Alpha  occ. eigenvalues --   -0.42453  -0.42084  -0.41522  -0.41414  -0.41176
 Alpha  occ. eigenvalues --   -0.40879  -0.40449  -0.40017  -0.39847  -0.39459
 Alpha  occ. eigenvalues --   -0.39251  -0.39044  -0.38453  -0.37890  -0.37578
 Alpha  occ. eigenvalues --   -0.37359  -0.36725  -0.36572  -0.35685  -0.34875
 Alpha  occ. eigenvalues --   -0.34352  -0.33894  -0.31727  -0.30992  -0.29730
 Alpha  occ. eigenvalues --   -0.28887  -0.28570  -0.27588  -0.24976  -0.24511
 Alpha virt. eigenvalues --   -0.01442   0.00470   0.03599   0.03810   0.10181
 Alpha virt. eigenvalues --    0.11053   0.11608   0.12112   0.13212   0.13552
 Alpha virt. eigenvalues --    0.14198   0.14673   0.14796   0.15319   0.15597

 Mulliken charges:
               1
     1  C   -0.306103
     2  C   -0.306922
     3  C   -0.310040
     4  C   -0.059325
     5  C    0.057190
     6  C   -0.311878
     7  H    0.173742
     8  H    0.162804
     9  H    0.165170
    10  H    0.150729
    11  H    0.162963
    12  H    0.208476
    13  H    0.172564
    14  H    0.193413
    15  H    0.163384
    16  H    0.153805
    17  N   -0.431855
    18  C    0.069327
    19  C    0.064136
    20  C   -0.204471
    21  H    0.206911
    22  C   -0.208965
    23  H    0.245811
    24  C    0.449380
    25  H    0.191044
    26  H    0.211751
    27  N   -0.528278
    28  C   -0.174557
    29  H    0.169873
    30  H    0.235037
    31  C   -0.154048
    32  H    0.167896
    33  H    0.201150
    34  N   -0.817126
    35  S    1.253945
    36  O   -0.611956
    37  O   -0.609049
    38  C    0.089520
    39  C   -0.178848
    40  C   -0.189047
    41  C   -0.170647
    42  C   -0.163649
    43  C   -0.212155
    44  H    0.204497
    45  H    0.141110
    46  H    0.154659
    47  H    0.158366
    48  H    0.152309
    49  O   -0.548087
    50  H    0.449603
    51  C    0.727561
    52  O   -0.724361
    53  O   -0.718209
    54  H    0.445726
    55  C   -0.337881
    56  H    0.150074
    57  H    0.149268
    58  C   -0.094066
    59  H    0.141232
    60  H    0.146895
    61  C   -0.662788
    62  H    0.271272
    63  H    0.196308
    64  H    0.217363
    65  C   -0.295551
    66  H    0.141115
    67  H    0.146768
    68  C   -0.475241
    69  H    0.149437
    70  H    0.155988
    71  H    0.143718
    72  C   -0.331830
    73  H    0.187569
    74  H    0.163501
    75  C   -0.344085
    76  H    0.194991
    77  H    0.171664
 Sum of Mulliken charges =  -0.00000

 Dipole moment (field-independent basis, Debye):
    X=             -2.2012    Y=             -1.8595    Z=             -6.4700  Tot=              7.0827
 Quadrupole moment (field-independent basis, Debye-Ang):
   XX=           -204.9752   YY=           -223.2750   ZZ=           -219.7827
   XY=            -12.1019   XZ=             -5.3220   YZ=             10.0980

 Normal termination of Gaussian 16 at Thu Feb  7 16:39:34 2019.
