 Gaussian 16, Revision A.03,
 Gaussian 16:  ES64L-G16RevA.03 25-Dec-2016

 ------------------------------------------
 #p M062X/6-31G* em=gd3 force int=ultrafine
 ------------------------------------------

 -----
 Title
 -----
 Symbolic Z-matrix:
 Charge =  0 Multiplicity = 1

                         Standard orientation:
 ---------------------------------------------------------------------
 Center     Atomic      Atomic             Coordinates (Angstroms)
 Number     Number       Type             X           Y           Z
 ---------------------------------------------------------------------
      1          6           0       -4.869581    0.172561   -0.447112
      2          6           0       -4.951039   -1.119608   -1.265391
      3          6           0       -3.580866   -1.482412   -1.850972
      4          6           0       -2.575450   -1.618830   -0.711778
      5          6           0       -2.443516   -0.290761    0.087824
      6          6           0       -3.820833    0.069511    0.664679
      7          1           0       -3.631232   -2.410487   -2.431972
      8          1           0       -5.298901   -1.940092   -0.624204
      9          1           0       -5.679680   -1.016625   -2.076353
     10          1           0       -4.594541    1.000361   -1.115984
     11          1           0       -5.851889    0.413187   -0.026766
     12          1           0       -2.903666   -2.407309   -0.028506
     13          1           0       -2.210965    0.477866   -0.664742
     14          1           0       -4.115440   -0.687250    1.402760
     15          1           0       -3.723482    1.028902    1.186731
     16          1           0       -3.278391   -0.675007   -2.531941
     17          7           0       -1.218143   -2.015318   -1.154937
     18          6           0       -0.594494   -1.348289   -2.153589
     19          6           0       -0.472686   -2.763182   -0.307317
     20          6           0        0.759579   -1.389884   -2.323646
     21          1           0       -1.228856   -0.754720   -2.799175
     22          6           0        0.886319   -2.849572   -0.410477
     23          1           0       -1.015342   -3.246703    0.497956
     24          6           0        1.571109   -2.080352   -1.380995
     25          1           0        1.199167   -0.837725   -3.143841
     26          1           0        1.413559   -3.417550    0.343071
     27          7           0        2.908597   -1.993891   -1.391551
     28          6           0        3.692765   -2.473733   -0.246249
     29          1           0        3.631170   -3.562734   -0.163387
     30          1           0        3.296298   -2.021981    0.673843
     31          6           0        3.614338   -0.928788   -2.120673
     32          1           0        3.877177   -1.271401   -3.128853
     33          1           0        2.977706   -0.042574   -2.187364
     34          7           0       -1.314627   -0.272514    0.992686
     35         16           0       -1.284423   -1.186155    2.281206
     36          8           0       -2.308380   -2.254435    2.287083
     37          8           0        0.106691   -1.664831    2.508068
     38          6           0       -0.988288    2.851054   -0.151471
     39          6           0       -0.326150    2.162327   -1.174923
     40          6           0       -0.909803    2.065733   -2.436187
     41          6           0       -2.170111    2.612786   -2.681601
     42          6           0       -2.845606    3.266539   -1.654047
     43          6           0       -2.251200    3.385593   -0.399823
     44          1           0        0.622590    1.671020   -0.964919
     45          1           0       -0.378633    1.555298   -3.236619
     46          1           0       -2.623792    2.530318   -3.664831
     47          1           0       -3.833658    3.683721   -1.824487
     48          1           0       -2.776927    3.892209    0.406297
     49          8           0        0.263511    1.827064    1.658589
     50          1           0       -0.291319    1.049331    1.343324
     51          6           0        2.441557    0.624055    1.185217
     52          8           0        2.096831    0.197557    0.097105
     53          8           0        2.254761   -0.029240    2.322016
     54          1           0        1.534562   -0.709654    2.219491
     55          6           0        3.187788    1.924364    1.372661
     56          1           0        2.676038    2.465947    2.174285
     57          1           0        4.196423    1.692466    1.742385
     58          6           0       -0.358410    2.997704    1.217341
     59          1           0       -1.127051    3.345053    1.927093
     60          1           0        0.415105    3.779784    1.183248
     61          6           0       -1.607010   -0.113343    3.678351
     62          1           0       -0.870315    0.692478    3.632199
     63          1           0       -2.618993    0.284178    3.579443
     64          1           0       -1.502759   -0.687905    4.599622
     65          6           0        3.249446    2.755485    0.096661
     66          1           0        3.669933    2.150550   -0.715694
     67          1           0        2.227881    3.003011   -0.213619
     68          6           0        4.065308    4.032446    0.274061
     69          1           0        4.116558    4.604245   -0.657055
     70          1           0        3.623614    4.678097    1.040372
     71          1           0        5.090696    3.803932    0.584582
     72          6           0        5.105323   -1.980439   -0.546929
     73          1           0        5.698428   -1.868947    0.363002
     74          1           0        5.618461   -2.684574   -1.209675
     75          6           0        4.853640   -0.652115   -1.264374
     76          1           0        4.606960    0.120938   -0.531429
     77          1           0        5.703397   -0.311129   -1.859289
 ---------------------------------------------------------------------

 SCF Done:  E(RM062X) =  -1991.38690238     A.U. after   15 cycles

 The electronic state is 1-A.
 Alpha  occ. eigenvalues --  -90.10305 -19.63448 -19.60126 -19.59041 -19.58478
 Alpha  occ. eigenvalues --  -19.58319 -14.84785 -14.80462 -14.69331 -10.65578
 Alpha  occ. eigenvalues --  -10.63210 -10.62411 -10.61514 -10.59123 -10.59111
 Alpha  occ. eigenvalues --  -10.58985 -10.57822 -10.57397 -10.56779 -10.56681
 Alpha  occ. eigenvalues --  -10.55987 -10.55723 -10.55569 -10.55007 -10.54943
 Alpha  occ. eigenvalues --  -10.54890 -10.54615 -10.54580 -10.54505 -10.53857
 Alpha  occ. eigenvalues --  -10.53579 -10.53550 -10.53299 -10.53259 -10.52738
 Alpha  occ. eigenvalues --  -10.52623  -8.41265  -6.33503  -6.33411  -6.33331
 Alpha  occ. eigenvalues --   -1.19184  -1.17809  -1.12924  -1.10175  -1.09905
 Alpha  occ. eigenvalues --   -1.09107  -1.06081  -0.97525  -0.95299  -0.94762
 Alpha  occ. eigenvalues --   -0.92186  -0.89832  -0.88563  -0.88203  -0.85046
 Alpha  occ. eigenvalues --   -0.84901  -0.83670  -0.83514  -0.83298  -0.80120
 Alpha  occ. eigenvalues --   -0.79266  -0.76328  -0.75631  -0.74671  -0.70936
 Alpha  occ. eigenvalues --   -0.70220  -0.69202  -0.68688  -0.68343  -0.68050
 Alpha  occ. eigenvalues --   -0.65896  -0.64740  -0.63924  -0.63451  -0.61601
 Alpha  occ. eigenvalues --   -0.60257  -0.59372  -0.59037  -0.58349  -0.56157
 Alpha  occ. eigenvalues --   -0.55499  -0.55212  -0.55108  -0.54216  -0.53768
 Alpha  occ. eigenvalues --   -0.53445  -0.53058  -0.52520  -0.51924  -0.51683
 Alpha  occ. eigenvalues --   -0.51098  -0.50968  -0.50613  -0.50073  -0.49833
 Alpha  occ. eigenvalues --   -0.49602  -0.49537  -0.48796  -0.48326  -0.47992
 Alpha  occ. eigenvalues --   -0.47807  -0.47191  -0.47036  -0.46973  -0.45885
 Alpha  occ. eigenvalues --   -0.45681  -0.45221  -0.43944  -0.43661  -0.43442
 Alpha  occ. eigenvalues --   -0.42810  -0.42670  -0.42191  -0.42017  -0.41870
 Alpha  occ. eigenvalues --   -0.41172  -0.40897  -0.40535  -0.39891  -0.39576
 Alpha  occ. eigenvalues --   -0.39360  -0.39267  -0.38913  -0.38398  -0.37979
 Alpha  occ. eigenvalues --   -0.37322  -0.36221  -0.35816  -0.35340  -0.35147
 Alpha  occ. eigenvalues --   -0.34327  -0.33051  -0.32025  -0.31648  -0.31467
 Alpha  occ. eigenvalues --   -0.29898  -0.28855  -0.28319  -0.27384  -0.25364
 Alpha virt. eigenvalues --   -0.01036   0.00669   0.03200   0.03754   0.08962
 Alpha virt. eigenvalues --    0.10171   0.10915   0.11813   0.12956   0.13549
 Alpha virt. eigenvalues --    0.13856   0.14296   0.14996   0.15480   0.15827

 Mulliken charges:
               1
     1  C   -0.303943
     2  C   -0.304183
     3  C   -0.309651
     4  C   -0.072909
     5  C    0.064776
     6  C   -0.304936
     7  H    0.166524
     8  H    0.161063
     9  H    0.159162
    10  H    0.145642
    11  H    0.156831
    12  H    0.211592
    13  H    0.141093
    14  H    0.179526
    15  H    0.150175
    16  H    0.150034
    17  N   -0.423968
    18  C    0.098665
    19  C    0.085142
    20  C   -0.227072
    21  H    0.204690
    22  C   -0.226458
    23  H    0.263008
    24  C    0.427528
    25  H    0.187836
    26  H    0.207499
    27  N   -0.527848
    28  C   -0.158353
    29  H    0.178305
    30  H    0.198661
    31  C   -0.146369
    32  H    0.169589
    33  H    0.194721
    34  N   -0.759983
    35  S    1.249089
    36  O   -0.644139
    37  O   -0.669826
    38  C    0.049260
    39  C   -0.176358
    40  C   -0.187901
    41  C   -0.169606
    42  C   -0.161362
    43  C   -0.199008
    44  H    0.204730
    45  H    0.139219
    46  H    0.156643
    47  H    0.162055
    48  H    0.157787
    49  O   -0.715627
    50  H    0.483934
    51  C    0.654938
    52  O   -0.521648
    53  O   -0.646608
    54  H    0.485092
    55  C   -0.370812
    56  H    0.202419
    57  H    0.165186
    58  C   -0.063829
    59  H    0.127348
    60  H    0.150707
    61  C   -0.659925
    62  H    0.224208
    63  H    0.186902
    64  H    0.206880
    65  C   -0.288734
    66  H    0.145158
    67  H    0.162900
    68  C   -0.480348
    69  H    0.159083
    70  H    0.158427
    71  H    0.151343
    72  C   -0.336922
    73  H    0.184423
    74  H    0.169894
    75  C   -0.335854
    76  H    0.181478
    77  H    0.173014
 Sum of Mulliken charges =  -0.00000

 Dipole moment (field-independent basis, Debye):
    X=              1.5483    Y=             -0.2388    Z=             -6.6306  Tot=              6.8132
 Quadrupole moment (field-independent basis, Debye-Ang):
   XX=           -199.0374   YY=           -222.5511   ZZ=           -222.4644
   XY=            -11.6896   XZ=             -0.3002   YZ=             12.6330

 Normal termination of Gaussian 16 at Thu Feb  7 23:08:02 2019.
