 Gaussian 16, Revision A.03,
 Gaussian 16:  ES64L-G16RevA.03 25-Dec-2016

 ------------------------------------------
 #p M062X/6-31G* em=gd3 force int=ultrafine
 ------------------------------------------

 -----
 Title
 -----
 Symbolic Z-matrix:
 Charge =  0 Multiplicity = 1

                         Standard orientation:
 ---------------------------------------------------------------------
 Center     Atomic      Atomic             Coordinates (Angstroms)
 Number     Number       Type             X           Y           Z
 ---------------------------------------------------------------------
      1          6           0       -4.864892    0.509139   -0.556289
      2          6           0       -5.034777   -0.786532   -1.354821
      3          6           0       -3.693082   -1.249676   -1.935059
      4          6           0       -2.701632   -1.457325   -0.794532
      5          6           0       -2.502136   -0.145352    0.002271
      6          6           0       -3.838675    0.344067    0.567932
      7          1           0       -3.804091   -2.174283   -2.511366
      8          1           0       -5.437653   -1.571672   -0.701623
      9          1           0       -5.755235   -0.644845   -2.166399
     10          1           0       -4.527801    1.306539   -1.232633
     11          1           0       -5.827100    0.824858   -0.140548
     12          1           0       -3.088590   -2.222711   -0.113896
     13          1           0       -2.151458    0.609701   -0.713135
     14          1           0       -4.204110   -0.369231    1.314453
     15          1           0       -3.661726    1.301648    1.070549
     16          1           0       -3.328120   -0.469947   -2.617024
     17          7           0       -1.370848   -1.934846   -1.225235
     18          6           0       -0.684554   -1.282861   -2.201810
     19          6           0       -0.678084   -2.735022   -0.372218
     20          6           0        0.666212   -1.380320   -2.332318
     21          1           0       -1.272058   -0.652951   -2.857432
     22          6           0        0.674369   -2.869629   -0.429102
     23          1           0       -1.265013   -3.219754    0.400200
     24          6           0        1.424956   -2.103826   -1.363512
     25          1           0        1.154895   -0.833639   -3.127736
     26          1           0        1.157233   -3.474880    0.324908
     27          7           0        2.752096   -2.075471   -1.335332
     28          6           0        3.487456   -2.575401   -0.162506
     29          1           0        3.344644   -3.653666   -0.047383
     30          1           0        3.116544   -2.039099    0.722469
     31          6           0        3.523261   -1.038569   -2.042476
     32          1           0        3.783904   -1.389218   -3.048913
     33          1           0        2.928920   -0.123673   -2.092078
     34          7           0       -1.418301   -0.248296    0.963241
     35         16           0       -1.430963   -1.113202    2.346717
     36          8           0       -2.665492   -1.900779    2.348843
     37          8           0       -0.158361   -1.821834    2.482500
     38          6           0       -0.528413    2.669991   -0.071405
     39          6           0       -0.044339    2.073103   -1.243800
     40          6           0       -0.780991    2.150462   -2.425532
     41          6           0       -2.014211    2.801318   -2.459025
     42          6           0       -2.507756    3.384990   -1.293765
     43          6           0       -1.765550    3.319571   -0.114874
     44          1           0        0.885901    1.508357   -1.186033
     45          1           0       -0.382984    1.701410   -3.333473
     46          1           0       -2.582131    2.859528   -3.383453
     47          1           0       -3.467837    3.893626   -1.302767
     48          1           0       -2.156695    3.780491    0.790025
     49          8           0        0.698539    1.386183    1.671578
     50          1           0       -0.517293    0.229598    0.803688
     51          6           0        2.035089    0.752529    1.172281
     52          8           0        1.859630    0.186814    0.024808
     53          8           0        2.280063   -0.134943    2.246617
     54          1           0        1.577882   -0.807536    2.184744
     55          6           0        3.135392    1.830531    1.268093
     56          1           0        2.924960    2.509688    2.104264
     57          1           0        4.056715    1.298701    1.539473
     58          6           0        0.261358    2.642498    1.234485
     59          1           0       -0.397163    3.041283    2.020916
     60          1           0        1.100632    3.348584    1.158727
     61          6           0       -1.465415    0.102673    3.643766
     62          1           0       -0.577263    0.723467    3.489823
     63          1           0       -2.385845    0.681008    3.550790
     64          1           0       -1.425643   -0.423882    4.598644
     65          6           0        3.379026    2.607370   -0.023619
     66          1           0        3.654073    1.899026   -0.813401
     67          1           0        2.457208    3.085488   -0.375597
     68          6           0        4.468005    3.664630    0.143296
     69          1           0        4.662268    4.200122   -0.791221
     70          1           0        4.181330    4.404022    0.899553
     71          1           0        5.408179    3.208515    0.473102
     72          6           0        4.930124   -2.190783   -0.468124
     73          1           0        5.535358   -2.135316    0.438577
     74          1           0        5.384498   -2.920213   -1.148124
     75          6           0        4.754120   -0.836769   -1.156476
     76          1           0        4.501997   -0.084549   -0.403723
     77          1           0        5.629254   -0.511439   -1.723077
 ---------------------------------------------------------------------

 SCF Done:  E(RM062X) =  -1991.35575357     A.U. after   15 cycles

 The electronic state is 1-A.
 Alpha  occ. eigenvalues --  -90.14793 -19.62394 -19.62142 -19.58658 -19.56883
 Alpha  occ. eigenvalues --  -19.50494 -14.85198 -14.80041 -14.76656 -10.63162
 Alpha  occ. eigenvalues --  -10.62623 -10.62137 -10.62110 -10.61091 -10.59898
 Alpha  occ. eigenvalues --  -10.57771 -10.57764 -10.57604 -10.57054 -10.56982
 Alpha  occ. eigenvalues --  -10.56903 -10.56330 -10.55886 -10.55111 -10.55097
 Alpha  occ. eigenvalues --  -10.55028 -10.54867 -10.54689 -10.54674 -10.54647
 Alpha  occ. eigenvalues --  -10.54477 -10.54067 -10.53109 -10.51088 -10.50974
 Alpha  occ. eigenvalues --  -10.49502  -8.45761  -6.37989  -6.37940  -6.37807
 Alpha  occ. eigenvalues --   -1.22577  -1.13479  -1.12887  -1.10787  -1.08885
 Alpha  occ. eigenvalues --   -1.05892  -1.02503  -0.99737  -0.95850  -0.95214
 Alpha  occ. eigenvalues --   -0.93482  -0.90136  -0.88579  -0.86546  -0.85329
 Alpha  occ. eigenvalues --   -0.84951  -0.84862  -0.83709  -0.83295  -0.83084
 Alpha  occ. eigenvalues --   -0.76578  -0.75941  -0.75564  -0.74292  -0.73285
 Alpha  occ. eigenvalues --   -0.71774  -0.68231  -0.68156  -0.67757  -0.67498
 Alpha  occ. eigenvalues --   -0.66450  -0.65496  -0.64861  -0.63354  -0.60501
 Alpha  occ. eigenvalues --   -0.60379  -0.59959  -0.59448  -0.57921  -0.57693
 Alpha  occ. eigenvalues --   -0.57166  -0.56417  -0.55704  -0.55115  -0.54381
 Alpha  occ. eigenvalues --   -0.53571  -0.53090  -0.52690  -0.52490  -0.52167
 Alpha  occ. eigenvalues --   -0.51698  -0.50797  -0.50155  -0.49913  -0.49345
 Alpha  occ. eigenvalues --   -0.49235  -0.48966  -0.48465  -0.48166  -0.47997
 Alpha  occ. eigenvalues --   -0.47740  -0.47625  -0.47169  -0.46143  -0.45802
 Alpha  occ. eigenvalues --   -0.45230  -0.45143  -0.44382  -0.43953  -0.43206
 Alpha  occ. eigenvalues --   -0.42485  -0.42316  -0.41153  -0.40895  -0.40775
 Alpha  occ. eigenvalues --   -0.40674  -0.40409  -0.40092  -0.39833  -0.39393
 Alpha  occ. eigenvalues --   -0.39185  -0.38888  -0.38641  -0.38341  -0.37831
 Alpha  occ. eigenvalues --   -0.37381  -0.36497  -0.36431  -0.36076  -0.35010
 Alpha  occ. eigenvalues --   -0.34511  -0.34274  -0.31749  -0.31364  -0.30015
 Alpha  occ. eigenvalues --   -0.29260  -0.28830  -0.27747  -0.24146  -0.23894
 Alpha virt. eigenvalues --   -0.01236   0.00568   0.03218   0.03552   0.10141
 Alpha virt. eigenvalues --    0.10587   0.11326   0.12558   0.13169   0.13297
 Alpha virt. eigenvalues --    0.14129   0.14437   0.15015   0.15507   0.15551

 Mulliken charges:
               1
     1  C   -0.306397
     2  C   -0.307812
     3  C   -0.310894
     4  C   -0.059860
     5  C    0.063559
     6  C   -0.307097
     7  H    0.175586
     8  H    0.163264
     9  H    0.166827
    10  H    0.150960
    11  H    0.165029
    12  H    0.206906
    13  H    0.175114
    14  H    0.193252
    15  H    0.161239
    16  H    0.156192
    17  N   -0.437514
    18  C    0.077893
    19  C    0.078149
    20  C   -0.208050
    21  H    0.203144
    22  C   -0.219653
    23  H    0.243109
    24  C    0.449830
    25  H    0.192060
    26  H    0.209835
    27  N   -0.518673
    28  C   -0.166476
    29  H    0.166867
    30  H    0.222553
    31  C   -0.146153
    32  H    0.160393
    33  H    0.205630
    34  N   -0.806940
    35  S    1.239444
    36  O   -0.603138
    37  O   -0.591252
    38  C    0.051515
    39  C   -0.196020
    40  C   -0.192306
    41  C   -0.172233
    42  C   -0.165500
    43  C   -0.205104
    44  H    0.232645
    45  H    0.141879
    46  H    0.156165
    47  H    0.159729
    48  H    0.153975
    49  O   -0.591431
    50  H    0.447265
    51  C    0.716957
    52  O   -0.696712
    53  O   -0.705305
    54  H    0.431966
    55  C   -0.340694
    56  H    0.143154
    57  H    0.150581
    58  C   -0.082349
    59  H    0.132336
    60  H    0.156305
    61  C   -0.665812
    62  H    0.269514
    63  H    0.200182
    64  H    0.222507
    65  C   -0.285343
    66  H    0.141951
    67  H    0.140133
    68  C   -0.474546
    69  H    0.147965
    70  H    0.149531
    71  H    0.148114
    72  C   -0.333863
    73  H    0.184674
    74  H    0.159905
    75  C   -0.338571
    76  H    0.204659
    77  H    0.165255
 Sum of Mulliken charges =  -0.00000

 Dipole moment (field-independent basis, Debye):
    X=             -3.6248    Y=             -1.6550    Z=             -5.7273  Tot=              6.9771
 Quadrupole moment (field-independent basis, Debye-Ang):
   XX=           -208.6769   YY=           -222.1620   ZZ=           -218.4888
   XY=            -13.3105   XZ=             -4.0989   YZ=             10.7347

 Normal termination of Gaussian 16 at Thu Feb  7 10:36:04 2019.
