 Gaussian 16, Revision A.03,
 Gaussian 16:  ES64L-G16RevA.03 25-Dec-2016

 ------------------------------------------
 #p M062X/6-31G* em=gd3 force int=ultrafine
 ------------------------------------------

 -----
 Title
 -----
 Symbolic Z-matrix:
 Charge =  0 Multiplicity = 1

                         Standard orientation:
 ---------------------------------------------------------------------
 Center     Atomic      Atomic             Coordinates (Angstroms)
 Number     Number       Type             X           Y           Z
 ---------------------------------------------------------------------
      1          6           0       -4.867768    0.220625   -0.457592
      2          6           0       -4.965733   -1.069580   -1.277081
      3          6           0       -3.599935   -1.449069   -1.862570
      4          6           0       -2.596663   -1.601937   -0.723412
      5          6           0       -2.450741   -0.278981    0.082016
      6          6           0       -3.823465    0.100933    0.656741
      7          1           0       -3.662166   -2.373833   -2.447614
      8          1           0       -5.324569   -1.885985   -0.636777
      9          1           0       -5.692555   -0.956373   -2.088346
     10          1           0       -4.578717    1.044677   -1.125244
     11          1           0       -5.847494    0.475731   -0.039806
     12          1           0       -2.932346   -2.391069   -0.044051
     13          1           0       -2.205820    0.488580   -0.667915
     14          1           0       -4.131278   -0.650759    1.394441
     15          1           0       -3.712048    1.058897    1.178605
     16          1           0       -3.286654   -0.642934   -2.540140
     17          7           0       -1.241700   -2.007057   -1.167345
     18          6           0       -0.611724   -1.339431   -2.161938
     19          6           0       -0.500756   -2.757744   -0.318111
     20          6           0        0.742809   -1.385203   -2.327633
     21          1           0       -1.241196   -0.740845   -2.807669
     22          6           0        0.858327   -2.849422   -0.417655
     23          1           0       -1.047126   -3.240681    0.485047
     24          6           0        1.549417   -2.081814   -1.385105
     25          1           0        1.186746   -0.830560   -3.143860
     26          1           0        1.380721   -3.419814    0.337433
     27          7           0        2.887594   -2.001586   -1.392402
     28          6           0        3.665769   -2.483787   -0.243667
     29          1           0        3.597783   -3.572135   -0.158645
     30          1           0        3.269730   -2.027657    0.674435
     31          6           0        3.600256   -0.937207   -2.116723
     32          1           0        3.864700   -1.278238   -3.124912
     33          1           0        2.967999   -0.047872   -2.183081
     34          7           0       -1.322604   -0.280201    0.986238
     35         16           0       -1.300349   -1.184932    2.281911
     36          8           0       -2.343864   -2.233512    2.300082
     37          8           0        0.085012   -1.683262    2.500889
     38          6           0       -0.930726    2.835594   -0.135896
     39          6           0       -0.291290    2.151405   -1.177237
     40          6           0       -0.893527    2.079210   -2.431613
     41          6           0       -2.149553    2.646432   -2.652675
     42          6           0       -2.802829    3.294324   -1.607404
     43          6           0       -2.189996    3.388118   -0.360178
     44          1           0        0.654713    1.646542   -0.988072
     45          1           0       -0.380552    1.573189   -3.246738
     46          1           0       -2.617135    2.584101   -3.630846
     47          1           0       -3.787299    3.727040   -1.757988
     48          1           0       -2.697313    3.889233    0.460836
     49          8           0        0.278987    1.763747    1.674670
     50          1           0       -0.292997    1.005067    1.336880
     51          6           0        2.442247    0.607041    1.173450
     52          8           0        2.092471    0.188835    0.084093
     53          8           0        2.270495   -0.062462    2.305028
     54          1           0        1.543012   -0.733921    2.203254
     55          6           0        3.179930    1.911414    1.367222
     56          1           0        2.652758    2.453010    2.159150
     57          1           0        4.182996    1.686025    1.754732
     58          6           0       -0.287676    2.958945    1.228892
     59          1           0       -1.036764    3.343847    1.939800
     60          1           0        0.520959    3.704786    1.189267
     61          6           0       -1.589924   -0.092575    3.671900
     62          1           0       -0.833083    0.693456    3.612321
     63          1           0       -2.591739    0.330634    3.576057
     64          1           0       -1.493488   -0.660365    4.598175
     65          6           0        3.260914    2.740144    0.089881
     66          1           0        3.673032    2.126700   -0.720233
     67          1           0        2.246590    3.007817   -0.227574
     68          6           0        4.101446    4.000929    0.269622
     69          1           0        4.173381    4.567957   -0.663050
     70          1           0        3.667868    4.659220    1.029802
     71          1           0        5.118832    3.750923    0.589701
     72          6           0        5.081760   -1.998650   -0.540949
     73          1           0        5.674027   -1.892229    0.370151
     74          1           0        5.591589   -2.704515   -1.204362
     75          6           0        4.838776   -0.667873   -1.256621
     76          1           0        4.594891    0.105001   -0.522664
     77          1           0        5.691693   -0.329669   -1.848606
 ---------------------------------------------------------------------

 SCF Done:  E(RM062X) =  -1991.38547032     A.U. after   15 cycles

 The electronic state is 1-A.
 Alpha  occ. eigenvalues --  -90.10275 -19.63518 -19.60172 -19.58920 -19.58415
 Alpha  occ. eigenvalues --  -19.58304 -14.84785 -14.80443 -14.69307 -10.65674
 Alpha  occ. eigenvalues --  -10.63208 -10.62418 -10.61542 -10.59173 -10.59096
 Alpha  occ. eigenvalues --  -10.58946 -10.57824 -10.57381 -10.56769 -10.56697
 Alpha  occ. eigenvalues --  -10.55964 -10.55711 -10.55593 -10.55035 -10.54968
 Alpha  occ. eigenvalues --  -10.54905 -10.54629 -10.54594 -10.54507 -10.53905
 Alpha  occ. eigenvalues --  -10.53588 -10.53463 -10.53388 -10.53350 -10.52808
 Alpha  occ. eigenvalues --  -10.52626  -8.41233  -6.33470  -6.33379  -6.33299
 Alpha  occ. eigenvalues --   -1.19226  -1.17762  -1.12922  -1.10149  -1.09953
 Alpha  occ. eigenvalues --   -1.09089  -1.06041  -0.97527  -0.95324  -0.94748
 Alpha  occ. eigenvalues --   -0.92188  -0.89824  -0.88559  -0.88274  -0.85067
 Alpha  occ. eigenvalues --   -0.84872  -0.83685  -0.83523  -0.83292  -0.80079
 Alpha  occ. eigenvalues --   -0.79331  -0.76320  -0.75620  -0.74667  -0.70939
 Alpha  occ. eigenvalues --   -0.70239  -0.69263  -0.68675  -0.68340  -0.68072
 Alpha  occ. eigenvalues --   -0.65939  -0.64749  -0.63918  -0.63472  -0.61600
 Alpha  occ. eigenvalues --   -0.60261  -0.59367  -0.59069  -0.58352  -0.56156
 Alpha  occ. eigenvalues --   -0.55568  -0.55252  -0.55138  -0.54303  -0.53820
 Alpha  occ. eigenvalues --   -0.53450  -0.53053  -0.52571  -0.51895  -0.51662
 Alpha  occ. eigenvalues --   -0.51083  -0.50955  -0.50616  -0.50044  -0.49830
 Alpha  occ. eigenvalues --   -0.49649  -0.49530  -0.48783  -0.48318  -0.48002
 Alpha  occ. eigenvalues --   -0.47795  -0.47210  -0.47060  -0.46977  -0.45854
 Alpha  occ. eigenvalues --   -0.45615  -0.45205  -0.43948  -0.43677  -0.43456
 Alpha  occ. eigenvalues --   -0.42847  -0.42780  -0.42171  -0.42039  -0.41852
 Alpha  occ. eigenvalues --   -0.41188  -0.40913  -0.40525  -0.39884  -0.39606
 Alpha  occ. eigenvalues --   -0.39369  -0.39301  -0.38989  -0.38402  -0.38030
 Alpha  occ. eigenvalues --   -0.37347  -0.36241  -0.35813  -0.35335  -0.35168
 Alpha  occ. eigenvalues --   -0.34293  -0.33018  -0.32001  -0.31656  -0.31399
 Alpha  occ. eigenvalues --   -0.29924  -0.28834  -0.28325  -0.27351  -0.25352
 Alpha virt. eigenvalues --   -0.01048   0.00677   0.03162   0.03730   0.08872
 Alpha virt. eigenvalues --    0.10171   0.10938   0.11804   0.12955   0.13543
 Alpha virt. eigenvalues --    0.13828   0.14308   0.14985   0.15477   0.15849

 Mulliken charges:
               1
     1  C   -0.303958
     2  C   -0.304221
     3  C   -0.309762
     4  C   -0.072430
     5  C    0.066321
     6  C   -0.304835
     7  H    0.166776
     8  H    0.161188
     9  H    0.159210
    10  H    0.145338
    11  H    0.156933
    12  H    0.210647
    13  H    0.140745
    14  H    0.180087
    15  H    0.150295
    16  H    0.149920
    17  N   -0.423956
    18  C    0.097902
    19  C    0.087133
    20  C   -0.226604
    21  H    0.204625
    22  C   -0.226700
    23  H    0.261726
    24  C    0.427092
    25  H    0.187649
    26  H    0.207684
    27  N   -0.527259
    28  C   -0.158758
    29  H    0.178254
    30  H    0.198342
    31  C   -0.146044
    32  H    0.169587
    33  H    0.194303
    34  N   -0.763533
    35  S    1.248159
    36  O   -0.641957
    37  O   -0.669398
    38  C    0.050204
    39  C   -0.176157
    40  C   -0.188363
    41  C   -0.169540
    42  C   -0.160999
    43  C   -0.199486
    44  H    0.204543
    45  H    0.139425
    46  H    0.156871
    47  H    0.162199
    48  H    0.158161
    49  O   -0.716729
    50  H    0.485083
    51  C    0.658769
    52  O   -0.521028
    53  O   -0.646925
    54  H    0.484282
    55  C   -0.372389
    56  H    0.202924
    57  H    0.165969
    58  C   -0.063149
    59  H    0.126988
    60  H    0.147660
    61  C   -0.661721
    62  H    0.226932
    63  H    0.186178
    64  H    0.206351
    65  C   -0.289653
    66  H    0.145933
    67  H    0.162297
    68  C   -0.480417
    69  H    0.159396
    70  H    0.158536
    71  H    0.151721
    72  C   -0.336602
    73  H    0.184435
    74  H    0.169787
    75  C   -0.335744
    76  H    0.180868
    77  H    0.172891
 Sum of Mulliken charges =  -0.00000

 Dipole moment (field-independent basis, Debye):
    X=              1.5792    Y=             -0.1154    Z=             -6.6838  Tot=              6.8688
 Quadrupole moment (field-independent basis, Debye-Ang):
   XX=           -199.4787   YY=           -222.4604   ZZ=           -222.6692
   XY=            -11.6043   XZ=              0.1582   YZ=             12.7966

 Normal termination of Gaussian 16 at Thu Feb  7 22:34:32 2019.
