 Gaussian 16, Revision A.03,
 Gaussian 16:  ES64L-G16RevA.03 25-Dec-2016

 ------------------------------------------
 #p M062X/6-31G* em=gd3 force int=ultrafine
 ------------------------------------------

 -----
 Title
 -----
 Symbolic Z-matrix:
 Charge =  0 Multiplicity = 1

                         Standard orientation:
 ---------------------------------------------------------------------
 Center     Atomic      Atomic             Coordinates (Angstroms)
 Number     Number       Type             X           Y           Z
 ---------------------------------------------------------------------
      1          6           0       -4.783358    0.435233   -0.524890
      2          6           0       -4.981403   -0.854678   -1.326697
      3          6           0       -3.659839   -1.317350   -1.952675
      4          6           0       -2.640884   -1.528824   -0.839047
      5          6           0       -2.397839   -0.214131   -0.053387
      6          6           0       -3.715428    0.270729    0.561258
      7          1           0       -3.791415   -2.240905   -2.526515
      8          1           0       -5.363660   -1.644537   -0.666802
      9          1           0       -5.728252   -0.705544   -2.112759
     10          1           0       -4.476984    1.237726   -1.208574
     11          1           0       -5.730448    0.743837   -0.070432
     12          1           0       -3.017595   -2.285148   -0.143698
     13          1           0       -2.081267    0.540094   -0.785185
     14          1           0       -4.055885   -0.446787    1.315402
     15          1           0       -3.527052    1.227669    1.059595
     16          1           0       -3.313825   -0.537385   -2.644387
     17          7           0       -1.322245   -2.017667   -1.293268
     18          6           0       -0.638689   -1.335722   -2.250800
     19          6           0       -0.623901   -2.810617   -0.437098
     20          6           0        0.717163   -1.386483   -2.350537
     21          1           0       -1.233626   -0.716165   -2.910573
     22          6           0        0.733438   -2.896822   -0.461424
     23          1           0       -1.212365   -3.316053    0.321047
     24          6           0        1.473101   -2.080707   -1.358615
     25          1           0        1.205684   -0.817101   -3.129586
     26          1           0        1.220834   -3.488177    0.300602
     27          7           0        2.794288   -1.972379   -1.277442
     28          6           0        3.525731   -2.421362   -0.082734
     29          1           0        3.411873   -3.499751    0.057591
     30          1           0        3.127156   -1.876207    0.785561
     31          6           0        3.519669   -0.901603   -1.975014
     32          1           0        3.765373   -1.218691   -2.995944
     33          1           0        2.888144   -0.009490   -2.000275
     34          7           0       -1.275326   -0.313330    0.866210
     35         16           0       -1.324042   -1.161279    2.257791
     36          8           0       -2.526520   -2.000428    2.244314
     37          8           0       -0.032284   -1.826468    2.447212
     38          6           0       -0.598650    2.686683    0.029911
     39          6           0       -0.126178    2.197857   -1.198402
     40          6           0       -0.909048    2.288437   -2.347789
     41          6           0       -2.181019    2.859836   -2.304325
     42          6           0       -2.663594    3.343630   -1.091512
     43          6           0       -1.874519    3.257460    0.055847
     44          1           0        0.833550    1.693844   -1.221726
     45          1           0       -0.515506    1.915240   -3.291132
     46          1           0       -2.784908    2.933419   -3.204604
     47          1           0       -3.651154    3.793564   -1.036520
     48          1           0       -2.259515    3.649258    0.995410
     49          8           0        0.707040    1.546452    1.885657
     50          1           0       -0.295054   -0.065769    0.552305
     51          6           0        1.853434    0.822714    1.249255
     52          8           0        1.456537    0.214735    0.150935
     53          8           0        2.237516   -0.059585    2.287880
     54          1           0        1.544251   -0.744527    2.307719
     55          6           0        3.049307    1.803239    1.133883
     56          1           0        2.995957    2.519421    1.964648
     57          1           0        3.947889    1.203013    1.324053
     58          6           0        0.239132    2.735107    1.311639
     59          1           0       -0.394550    3.196485    2.080383
     60          1           0        1.071268    3.436017    1.147517
     61          6           0       -1.473837    0.050606    3.549591
     62          1           0       -0.605063    0.707340    3.450511
     63          1           0       -2.407393    0.595280    3.398057
     64          1           0       -1.481947   -0.479831    4.503216
     65          6           0        3.225958    2.538711   -0.191409
     66          1           0        3.270068    1.806513   -1.005678
     67          1           0        2.361228    3.173397   -0.415676
     68          6           0        4.489252    3.398141   -0.192765
     69          1           0        4.628380    3.916248   -1.146692
     70          1           0        4.443387    4.156234    0.597025
     71          1           0        5.379580    2.786792   -0.006047
     72          6           0        4.961289   -2.011366   -0.390928
     73          1           0        5.562238   -1.920369    0.515633
     74          1           0        5.432298   -2.748635   -1.050418
     75          6           0        4.768225   -0.677718   -1.116572
     76          1           0        4.550621    0.101958   -0.382158
     77          1           0        5.631936   -0.371808   -1.710618
 ---------------------------------------------------------------------

 SCF Done:  E(RM062X) =  -1991.35849228     A.U. after   14 cycles

 The electronic state is 1-A.
 Alpha  occ. eigenvalues --  -90.14188 -19.61792 -19.61769 -19.58669 -19.56704
 Alpha  occ. eigenvalues --  -19.51255 -14.85174 -14.80447 -14.75780 -10.63421
 Alpha  occ. eigenvalues --  -10.62789 -10.62246 -10.62199 -10.60735 -10.59360
 Alpha  occ. eigenvalues --  -10.58449 -10.58001 -10.57952 -10.57164 -10.56885
 Alpha  occ. eigenvalues --  -10.56695 -10.55663 -10.55606 -10.55112 -10.54840
 Alpha  occ. eigenvalues --  -10.54830 -10.54795 -10.54725 -10.54574 -10.54398
 Alpha  occ. eigenvalues --  -10.54329 -10.54321 -10.53071 -10.51507 -10.51460
 Alpha  occ. eigenvalues --  -10.49696  -8.45165  -6.37382  -6.37359  -6.37201
 Alpha  occ. eigenvalues --   -1.22011  -1.13588  -1.13478  -1.10266  -1.09346
 Alpha  occ. eigenvalues --   -1.05863  -1.01754  -0.99327  -0.95750  -0.94989
 Alpha  occ. eigenvalues --   -0.93498  -0.90304  -0.88756  -0.85913  -0.85772
 Alpha  occ. eigenvalues --   -0.84820  -0.84712  -0.84233  -0.83055  -0.82702
 Alpha  occ. eigenvalues --   -0.76670  -0.76271  -0.75833  -0.74354  -0.72800
 Alpha  occ. eigenvalues --   -0.71652  -0.68329  -0.68229  -0.67938  -0.67211
 Alpha  occ. eigenvalues --   -0.66742  -0.65232  -0.64864  -0.63528  -0.60552
 Alpha  occ. eigenvalues --   -0.60404  -0.59778  -0.59034  -0.57806  -0.57597
 Alpha  occ. eigenvalues --   -0.57181  -0.56440  -0.55787  -0.55169  -0.54198
 Alpha  occ. eigenvalues --   -0.53551  -0.52656  -0.52460  -0.52439  -0.51901
 Alpha  occ. eigenvalues --   -0.51551  -0.51023  -0.50749  -0.49880  -0.49554
 Alpha  occ. eigenvalues --   -0.49158  -0.48838  -0.48207  -0.48138  -0.48010
 Alpha  occ. eigenvalues --   -0.47673  -0.47466  -0.46914  -0.46433  -0.46104
 Alpha  occ. eigenvalues --   -0.44881  -0.44737  -0.44146  -0.43868  -0.43263
 Alpha  occ. eigenvalues --   -0.42516  -0.42137  -0.41403  -0.41315  -0.41112
 Alpha  occ. eigenvalues --   -0.40902  -0.40483  -0.39993  -0.39810  -0.39311
 Alpha  occ. eigenvalues --   -0.39255  -0.39072  -0.38439  -0.37965  -0.37599
 Alpha  occ. eigenvalues --   -0.37391  -0.36741  -0.36563  -0.35747  -0.34906
 Alpha  occ. eigenvalues --   -0.34389  -0.33970  -0.31671  -0.31104  -0.29770
 Alpha  occ. eigenvalues --   -0.28875  -0.28601  -0.27650  -0.24842  -0.24411
 Alpha virt. eigenvalues --   -0.01525   0.00401   0.03552   0.03756   0.10138
 Alpha virt. eigenvalues --    0.10989   0.11651   0.12202   0.13173   0.13507
 Alpha virt. eigenvalues --    0.14214   0.14593   0.14758   0.15227   0.15600

 Mulliken charges:
               1
     1  C   -0.306275
     2  C   -0.307130
     3  C   -0.309269
     4  C   -0.060183
     5  C    0.056688
     6  C   -0.311514
     7  H    0.173989
     8  H    0.162831
     9  H    0.165514
    10  H    0.151063
    11  H    0.163345
    12  H    0.209019
    13  H    0.173075
    14  H    0.193064
    15  H    0.163629
    16  H    0.154256
    17  N   -0.430600
    18  C    0.067439
    19  C    0.063722
    20  C   -0.201865
    21  H    0.206483
    22  C   -0.209141
    23  H    0.245287
    24  C    0.445975
    25  H    0.192021
    26  H    0.211549
    27  N   -0.526114
    28  C   -0.171090
    29  H    0.169765
    30  H    0.229849
    31  C   -0.154775
    32  H    0.165780
    33  H    0.205557
    34  N   -0.815680
    35  S    1.253374
    36  O   -0.612005
    37  O   -0.606503
    38  C    0.084879
    39  C   -0.184076
    40  C   -0.189726
    41  C   -0.171172
    42  C   -0.163705
    43  C   -0.212135
    44  H    0.211110
    45  H    0.140583
    46  H    0.154897
    47  H    0.158589
    48  H    0.152483
    49  O   -0.550899
    50  H    0.448641
    51  C    0.724879
    52  O   -0.721922
    53  O   -0.718015
    54  H    0.444743
    55  C   -0.338516
    56  H    0.148807
    57  H    0.151067
    58  C   -0.091351
    59  H    0.139935
    60  H    0.147642
    61  C   -0.663295
    62  H    0.273536
    63  H    0.196298
    64  H    0.217569
    65  C   -0.292814
    66  H    0.136109
    67  H    0.146258
    68  C   -0.473423
    69  H    0.148942
    70  H    0.154555
    71  H    0.144933
    72  C   -0.331888
    73  H    0.187183
    74  H    0.162975
    75  C   -0.343227
    76  H    0.197319
    77  H    0.171101
 Sum of Mulliken charges =  -0.00000

 Dipole moment (field-independent basis, Debye):
    X=             -2.5533    Y=             -1.9214    Z=             -6.3571  Tot=              7.1150
 Quadrupole moment (field-independent basis, Debye-Ang):
   XX=           -205.7168   YY=           -222.8155   ZZ=           -219.8995
   XY=            -12.3710   XZ=             -5.3199   YZ=             10.0292

 Normal termination of Gaussian 16 at Thu Feb  7 14:51:20 2019.
