 Gaussian 16, Revision A.03,
 Gaussian 16:  ES64L-G16RevA.03 25-Dec-2016

 ------------------------------------------
 #p M062X/6-31G* em=gd3 force int=ultrafine
 ------------------------------------------

 -----
 Title
 -----
 Symbolic Z-matrix:
 Charge =  0 Multiplicity = 1

                         Standard orientation:
 ---------------------------------------------------------------------
 Center     Atomic      Atomic             Coordinates (Angstroms)
 Number     Number       Type             X           Y           Z
 ---------------------------------------------------------------------
      1          6           0       -4.844549    0.389237   -0.506428
      2          6           0       -4.979550   -0.881782   -1.350127
      3          6           0       -3.623794   -1.288586   -1.940022
      4          6           0       -2.633636   -1.506315   -0.801186
      5          6           0       -2.455833   -0.219443    0.046930
      6          6           0       -3.815044    0.213195    0.614188
      7          1           0       -3.709455   -2.195208   -2.549148
      8          1           0       -5.363750   -1.699754   -0.726565
      9          1           0       -5.700570   -0.731664   -2.160240
     10          1           0       -4.527060    1.216646   -1.156339
     11          1           0       -5.817115    0.666305   -0.086287
     12          1           0       -2.998872   -2.305172   -0.148277
     13          1           0       -2.143250    0.564454   -0.659269
     14          1           0       -4.162128   -0.533375    1.337720
     15          1           0       -3.669041    1.159984    1.147991
     16          1           0       -3.280450   -0.474413   -2.592812
     17          7           0       -1.287298   -1.937320   -1.247278
     18          6           0       -0.627983   -1.251235   -2.211632
     19          6           0       -0.573258   -2.733664   -0.414977
     20          6           0        0.726810   -1.318799   -2.358963
     21          1           0       -1.233894   -0.616427   -2.845163
     22          6           0        0.784703   -2.846217   -0.494132
     23          1           0       -1.141631   -3.242191    0.356146
     24          6           0        1.506137   -2.057248   -1.424301
     25          1           0        1.193922   -0.743562   -3.147571
     26          1           0        1.284654   -3.454142    0.246822
     27          7           0        2.842765   -1.997093   -1.406353
     28          6           0        3.594130   -2.507440   -0.250964
     29          1           0        3.490763   -3.592672   -0.168498
     30          1           0        3.205450   -2.033849    0.661597
     31          6           0        3.582326   -0.922440   -2.090309
     32          1           0        3.852111   -1.239362   -3.104629
     33          1           0        2.966772   -0.020385   -2.133616
     34          7           0       -1.348446   -0.331324    0.971324
     35         16           0       -1.388881   -1.228274    2.296342
     36          8           0       -2.542360   -2.144531    2.284184
     37          8           0       -0.057040   -1.847916    2.483923
     38          6           0       -0.732958    2.769735   -0.063915
     39          6           0       -0.157289    2.126548   -1.168656
     40          6           0       -0.805269    2.153028   -2.401556
     41          6           0       -2.046733    2.777619   -2.538835
     42          6           0       -2.631234    3.392363   -1.434379
     43          6           0       -1.969271    3.390146   -0.209769
     44          1           0        0.772357    1.573725   -1.040405
     45          1           0       -0.343908    1.677952   -3.265575
     46          1           0       -2.554224    2.788960   -3.498611
     47          1           0       -3.600771    3.872813   -1.519169
     48          1           0       -2.418443    3.859701    0.661979
     49          8           0        0.275598    1.414526    1.626913
     50          1           0       -0.481669    0.619559    1.179137
     51          6           0        2.350225    0.589919    1.173006
     52          8           0        2.078019    0.154968    0.067210
     53          8           0        2.249600   -0.138321    2.289190
     54          1           0        1.532434   -0.806118    2.177609
     55          6           0        3.102314    1.882885    1.394488
     56          1           0        2.624560    2.448958    2.201652
     57          1           0        4.087554    1.579192    1.773997
     58          6           0       -0.077681    2.707594    1.298842
     59          1           0       -0.767567    3.147952    2.041441
     60          1           0        0.809212    3.372700    1.299314
     61          6           0       -1.538881   -0.073932    3.654617
     62          1           0       -0.717947    0.636287    3.517015
     63          1           0       -2.504550    0.428943    3.578316
     64          1           0       -1.450486   -0.617176    4.596491
     65          6           0        3.275532    2.728380    0.134918
     66          1           0        3.662163    2.094204   -0.671254
     67          1           0        2.303795    3.094243   -0.215929
     68          6           0        4.217875    3.907397    0.369737
     69          1           0        4.377933    4.482825   -0.546809
     70          1           0        3.816806    4.589662    1.126888
     71          1           0        5.195155    3.560431    0.723087
     72          6           0        5.024013   -2.061469   -0.537032
     73          1           0        5.623748   -2.004598    0.373412
     74          1           0        5.505769   -2.760600   -1.228454
     75          6           0        4.812785   -0.701834   -1.205629
     76          1           0        4.563031    0.042646   -0.444457
     77          1           0        5.677688   -0.350578   -1.771703
 ---------------------------------------------------------------------

 SCF Done:  E(RM062X) =  -1991.36680564     A.U. after   15 cycles

 The electronic state is 1-A.
 Alpha  occ. eigenvalues --  -90.11460 -19.63018 -19.59475 -19.59388 -19.59261
 Alpha  occ. eigenvalues --  -19.55243 -14.85033 -14.80510 -14.70972 -10.65580
 Alpha  occ. eigenvalues --  -10.63385 -10.62618 -10.61968 -10.59763 -10.58973
 Alpha  occ. eigenvalues --  -10.58833 -10.57953 -10.57510 -10.57012 -10.55923
 Alpha  occ. eigenvalues --  -10.55847 -10.55831 -10.55554 -10.54884 -10.54715
 Alpha  occ. eigenvalues --  -10.54642 -10.54549 -10.53962 -10.53949 -10.53894
 Alpha  occ. eigenvalues --  -10.53754 -10.53375 -10.53193 -10.53157 -10.53068
 Alpha  occ. eigenvalues --  -10.52657  -8.42439  -6.34669  -6.34589  -6.34507
 Alpha  occ. eigenvalues --   -1.19124  -1.18470  -1.13203  -1.09675  -1.08868
 Alpha  occ. eigenvalues --   -1.07375  -1.05983  -0.98546  -0.95127  -0.94830
 Alpha  occ. eigenvalues --   -0.92712  -0.90053  -0.88706  -0.88041  -0.84800
 Alpha  occ. eigenvalues --   -0.84424  -0.84039  -0.83895  -0.83065  -0.80764
 Alpha  occ. eigenvalues --   -0.79057  -0.76507  -0.75765  -0.72955  -0.71428
 Alpha  occ. eigenvalues --   -0.70779  -0.69041  -0.68627  -0.68400  -0.67667
 Alpha  occ. eigenvalues --   -0.65496  -0.64847  -0.64085  -0.63135  -0.62273
 Alpha  occ. eigenvalues --   -0.60409  -0.59759  -0.58502  -0.58277  -0.56445
 Alpha  occ. eigenvalues --   -0.55948  -0.55619  -0.54993  -0.54572  -0.53712
 Alpha  occ. eigenvalues --   -0.53571  -0.53243  -0.52484  -0.51980  -0.51477
 Alpha  occ. eigenvalues --   -0.51135  -0.51019  -0.50717  -0.50359  -0.49864
 Alpha  occ. eigenvalues --   -0.49683  -0.49323  -0.48612  -0.48387  -0.47604
 Alpha  occ. eigenvalues --   -0.47223  -0.46910  -0.46865  -0.46244  -0.46235
 Alpha  occ. eigenvalues --   -0.45730  -0.45339  -0.44331  -0.43585  -0.43538
 Alpha  occ. eigenvalues --   -0.43055  -0.42585  -0.42071  -0.41698  -0.41571
 Alpha  occ. eigenvalues --   -0.41231  -0.40676  -0.40363  -0.40133  -0.39526
 Alpha  occ. eigenvalues --   -0.39385  -0.39040  -0.38822  -0.38782  -0.37799
 Alpha  occ. eigenvalues --   -0.37604  -0.36788  -0.36182  -0.35539  -0.34979
 Alpha  occ. eigenvalues --   -0.34316  -0.33329  -0.32667  -0.31257  -0.29650
 Alpha  occ. eigenvalues --   -0.29383  -0.28484  -0.27462  -0.26981  -0.25805
 Alpha virt. eigenvalues --   -0.01292   0.00505   0.03528   0.04220   0.09830
 Alpha virt. eigenvalues --    0.10191   0.11150   0.11593   0.12743   0.13402
 Alpha virt. eigenvalues --    0.13804   0.14354   0.15164   0.15343   0.15709

 Mulliken charges:
               1
     1  C   -0.305131
     2  C   -0.305425
     3  C   -0.310379
     4  C   -0.066940
     5  C    0.076499
     6  C   -0.306019
     7  H    0.168707
     8  H    0.161861
     9  H    0.161317
    10  H    0.147759
    11  H    0.159265
    12  H    0.208425
    13  H    0.152692
    14  H    0.186110
    15  H    0.154694
    16  H    0.152638
    17  N   -0.427498
    18  C    0.095059
    19  C    0.096294
    20  C   -0.224242
    21  H    0.206074
    22  C   -0.227890
    23  H    0.253767
    24  C    0.427820
    25  H    0.189740
    26  H    0.208343
    27  N   -0.523074
    28  C   -0.159737
    29  H    0.176782
    30  H    0.199696
    31  C   -0.146142
    32  H    0.169078
    33  H    0.196645
    34  N   -0.815354
    35  S    1.248485
    36  O   -0.624604
    37  O   -0.647553
    38  C    0.056383
    39  C   -0.184702
    40  C   -0.189531
    41  C   -0.173220
    42  C   -0.160981
    43  C   -0.202288
    44  H    0.204849
    45  H    0.136579
    46  H    0.154413
    47  H    0.159251
    48  H    0.156450
    49  O   -0.725742
    50  H    0.486328
    51  C    0.685725
    52  O   -0.532513
    53  O   -0.648725
    54  H    0.473688
    55  C   -0.371726
    56  H    0.196088
    57  H    0.165504
    58  C   -0.044528
    59  H    0.106376
    60  H    0.120836
    61  C   -0.670762
    62  H    0.252257
    63  H    0.189447
    64  H    0.208694
    65  C   -0.292609
    66  H    0.145467
    67  H    0.165472
    68  C   -0.480005
    69  H    0.158883
    70  H    0.158975
    71  H    0.150909
    72  C   -0.334747
    73  H    0.184290
    74  H    0.168410
    75  C   -0.335459
    76  H    0.182172
    77  H    0.172329
 Sum of Mulliken charges =  -0.00000

 Dipole moment (field-independent basis, Debye):
    X=              1.1245    Y=             -0.7947    Z=             -6.4628  Tot=              6.6078
 Quadrupole moment (field-independent basis, Debye-Ang):
   XX=           -200.8578   YY=           -224.2899   ZZ=           -221.5109
   XY=            -11.1753   XZ=              0.3291   YZ=             12.2778

 Normal termination of Gaussian 16 at Thu Feb  7 20:03:10 2019.
