 Gaussian 16, Revision A.03,
 Gaussian 16:  ES64L-G16RevA.03 25-Dec-2016

 ------------------------------------------
 #p M062X/6-31G* em=gd3 force int=ultrafine
 ------------------------------------------

 -----
 Title
 -----
 Symbolic Z-matrix:
 Charge =  0 Multiplicity = 1

                         Standard orientation:
 ---------------------------------------------------------------------
 Center     Atomic      Atomic             Coordinates (Angstroms)
 Number     Number       Type             X           Y           Z
 ---------------------------------------------------------------------
      1          6           0       -4.869797    0.163278   -0.445180
      2          6           0       -4.947784   -1.128953   -1.263703
      3          6           0       -3.576718   -1.487945   -1.849510
      4          6           0       -2.571029   -1.621786   -0.710288
      5          6           0       -2.442028   -0.293188    0.088926
      6          6           0       -3.820248    0.063220    0.666116
      7          1           0       -3.624616   -2.416241   -2.430374
      8          1           0       -5.293232   -1.950536   -0.622612
      9          1           0       -5.676872   -1.027851   -2.074509
     10          1           0       -4.597640    0.992086   -1.113985
     11          1           0       -5.852609    0.400746   -0.024251
     12          1           0       -2.897820   -2.410581   -0.026778
     13          1           0       -2.211633    0.475943   -0.663736
     14          1           0       -4.112361   -0.694578    1.404158
     15          1           0       -3.725558    1.022786    1.188341
     16          1           0       -3.276400   -0.679793   -2.530562
     17          7           0       -1.213150   -2.016209   -1.153328
     18          6           0       -0.590653   -1.348763   -2.152342
     19          6           0       -0.466873   -2.763941   -0.306336
     20          6           0        0.763348   -1.389462   -2.323176
     21          1           0       -1.225894   -0.755751   -2.797589
     22          6           0        0.892114   -2.849307   -0.410193
     23          1           0       -1.008860   -3.248024    0.499029
     24          6           0        1.575787   -2.079287   -1.380855
     25          1           0        1.202156   -0.837290   -3.143774
     26          1           0        1.420239   -3.417317    0.342716
     27          7           0        2.913131   -1.991676   -1.391985
     28          6           0        3.698452   -2.471625   -0.247574
     29          1           0        3.637951   -3.560757   -0.165520
     30          1           0        3.302050   -2.020964    0.673085
     31          6           0        3.617590   -0.926023   -2.121436
     32          1           0        3.880138   -1.268396   -3.129787
     33          1           0        2.980135   -0.040367   -2.187695
     34          7           0       -1.313251   -0.271684    0.994168
     35         16           0       -1.281881   -1.187383    2.281131
     36          8           0       -2.302409   -2.259014    2.284309
     37          8           0        0.110152   -1.662678    2.509458
     38          6           0       -0.999931    2.853403   -0.154139
     39          6           0       -0.332972    2.164540   -1.174237
     40          6           0       -0.912588    2.063820   -2.437012
     41          6           0       -2.173627    2.606927   -2.687244
     42          6           0       -2.853707    3.261336   -1.663075
     43          6           0       -2.263358    3.384624   -0.407317
     44          1           0        0.616243    1.675925   -0.960135
     45          1           0       -0.377647    1.553018   -3.234668
     46          1           0       -2.624314    2.520938   -3.671543
     47          1           0       -3.842334    3.675581   -1.837456
     48          1           0       -2.792886    3.891845    0.395970
     49          8           0        0.260396    1.838123    1.655105
     50          1           0       -0.290942    1.056745    1.344443
     51          6           0        2.441131    0.627337    1.187992
     52          8           0        2.098246    0.199134    0.099864
     53          8           0        2.250866   -0.022992    2.325779
     54          1           0        1.532425   -0.705352    2.222589
     55          6           0        3.189010    1.926770    1.374688
     56          1           0        2.680484    2.467919    2.178628
     57          1           0        4.198818    1.693473    1.740515
     58          6           0       -0.373501    3.003467    1.215905
     59          1           0       -1.146506    3.341484    1.925503
     60          1           0        0.392005    3.793419    1.184453
     61          6           0       -1.610485   -0.118572    3.679845
     62          1           0       -0.877628    0.690866    3.636291
     63          1           0       -2.624291    0.274166    3.580591
     64          1           0       -1.504569   -0.694506    4.600072
     65          6           0        3.246686    2.759164    0.099490
     66          1           0        3.668412    2.156372   -0.713852
     67          1           0        2.223742    3.003256   -0.208945
     68          6           0        4.058080    4.038898    0.277221
     69          1           0        4.105457    4.612166   -0.653189
     70          1           0        3.615051    4.681695    1.045154
     71          1           0        5.084898    3.814075    0.585734
     72          6           0        5.110374   -1.976811   -0.548851
     73          1           0        5.703892   -1.865086    0.360777
     74          1           0        5.623852   -2.680236   -1.212106
     75          6           0        4.857019   -0.648453   -1.265690
     76          1           0        4.609748    0.124111   -0.532389
     77          1           0        5.706156   -0.306482   -1.860926
 ---------------------------------------------------------------------

 SCF Done:  E(RM062X) =  -1991.38714810     A.U. after   15 cycles

 The electronic state is 1-A.
 Alpha  occ. eigenvalues --  -90.10310 -19.63435 -19.60120 -19.59064 -19.58489
 Alpha  occ. eigenvalues --  -19.58322 -14.84786 -14.80467 -14.69335 -10.65564
 Alpha  occ. eigenvalues --  -10.63212 -10.62410 -10.61510 -10.59114 -10.59114
 Alpha  occ. eigenvalues --  -10.58993 -10.57822 -10.57402 -10.56782 -10.56677
 Alpha  occ. eigenvalues --  -10.55992 -10.55725 -10.55564 -10.55003 -10.54940
 Alpha  occ. eigenvalues --  -10.54888 -10.54613 -10.54577 -10.54506 -10.53849
 Alpha  occ. eigenvalues --  -10.53576 -10.53565 -10.53284 -10.53242 -10.52725
 Alpha  occ. eigenvalues --  -10.52622  -8.41270  -6.33508  -6.33416  -6.33336
 Alpha  occ. eigenvalues --   -1.19171  -1.17817  -1.12925  -1.10182  -1.09896
 Alpha  occ. eigenvalues --   -1.09110  -1.06088  -0.97524  -0.95296  -0.94765
 Alpha  occ. eigenvalues --   -0.92185  -0.89834  -0.88565  -0.88190  -0.85043
 Alpha  occ. eigenvalues --   -0.84906  -0.83668  -0.83513  -0.83299  -0.80126
 Alpha  occ. eigenvalues --   -0.79254  -0.76330  -0.75634  -0.74673  -0.70935
 Alpha  occ. eigenvalues --   -0.70216  -0.69190  -0.68690  -0.68344  -0.68047
 Alpha  occ. eigenvalues --   -0.65888  -0.64737  -0.63924  -0.63445  -0.61601
 Alpha  occ. eigenvalues --   -0.60257  -0.59374  -0.59032  -0.58349  -0.56158
 Alpha  occ. eigenvalues --   -0.55489  -0.55205  -0.55102  -0.54200  -0.53758
 Alpha  occ. eigenvalues --   -0.53444  -0.53059  -0.52510  -0.51928  -0.51686
 Alpha  occ. eigenvalues --   -0.51101  -0.50970  -0.50613  -0.50080  -0.49832
 Alpha  occ. eigenvalues --   -0.49595  -0.49537  -0.48799  -0.48328  -0.47991
 Alpha  occ. eigenvalues --   -0.47805  -0.47188  -0.47031  -0.46973  -0.45889
 Alpha  occ. eigenvalues --   -0.45694  -0.45224  -0.43943  -0.43659  -0.43439
 Alpha  occ. eigenvalues --   -0.42805  -0.42648  -0.42195  -0.42011  -0.41873
 Alpha  occ. eigenvalues --   -0.41169  -0.40893  -0.40537  -0.39893  -0.39571
 Alpha  occ. eigenvalues --   -0.39360  -0.39261  -0.38900  -0.38396  -0.37969
 Alpha  occ. eigenvalues --   -0.37318  -0.36219  -0.35819  -0.35341  -0.35143
 Alpha  occ. eigenvalues --   -0.34334  -0.33057  -0.32029  -0.31652  -0.31476
 Alpha  occ. eigenvalues --   -0.29894  -0.28860  -0.28319  -0.27391  -0.25365
 Alpha virt. eigenvalues --   -0.01034   0.00668   0.03207   0.03758   0.08977
 Alpha virt. eigenvalues --    0.10170   0.10912   0.11814   0.12958   0.13548
 Alpha virt. eigenvalues --    0.13860   0.14292   0.15000   0.15480   0.15821

 Mulliken charges:
               1
     1  C   -0.303935
     2  C   -0.304179
     3  C   -0.309636
     4  C   -0.072983
     5  C    0.064505
     6  C   -0.304954
     7  H    0.166471
     8  H    0.161045
     9  H    0.159150
    10  H    0.145693
    11  H    0.156815
    12  H    0.211747
    13  H    0.141142
    14  H    0.179459
    15  H    0.150128
    16  H    0.150065
    17  N   -0.423988
    18  C    0.098815
    19  C    0.084873
    20  C   -0.227171
    21  H    0.204704
    22  C   -0.226452
    23  H    0.263204
    24  C    0.427615
    25  H    0.187868
    26  H    0.207457
    27  N   -0.527958
    28  C   -0.158284
    29  H    0.178316
    30  H    0.198738
    31  C   -0.146434
    32  H    0.169592
    33  H    0.194814
    34  N   -0.759391
    35  S    1.249208
    36  O   -0.644497
    37  O   -0.669869
    38  C    0.049152
    39  C   -0.176394
    40  C   -0.187821
    41  C   -0.169617
    42  C   -0.161438
    43  C   -0.198897
    44  H    0.204718
    45  H    0.139193
    46  H    0.156611
    47  H    0.162033
    48  H    0.157714
    49  O   -0.715365
    50  H    0.483709
    51  C    0.654298
    52  O   -0.521784
    53  O   -0.646590
    54  H    0.485201
    55  C   -0.370527
    56  H    0.202277
    57  H    0.165072
    58  C   -0.064151
    59  H    0.127453
    60  H    0.151354
    61  C   -0.659588
    62  H    0.223677
    63  H    0.187031
    64  H    0.206977
    65  C   -0.288588
    66  H    0.145008
    67  H    0.163112
    68  C   -0.480340
    69  H    0.159028
    70  H    0.158418
    71  H    0.151260
    72  C   -0.336973
    73  H    0.184412
    74  H    0.169909
    75  C   -0.335865
    76  H    0.181592
    77  H    0.173037
 Sum of Mulliken charges =  -0.00000

 Dipole moment (field-independent basis, Debye):
    X=              1.5452    Y=             -0.2577    Z=             -6.6210  Tot=              6.8038
 Quadrupole moment (field-independent basis, Debye-Ang):
   XX=           -198.9547   YY=           -222.5760   ZZ=           -222.4228
   XY=            -11.7125   XZ=             -0.3851   YZ=             12.6072

 Normal termination of Gaussian 16 at Thu Feb  7 23:14:45 2019.
