 Gaussian 16, Revision A.03,
 Gaussian 16:  ES64L-G16RevA.03 25-Dec-2016

 ------------------------------------------
 #p M062X/6-31G* em=gd3 force int=ultrafine
 ------------------------------------------

 -----
 Title
 -----
 Symbolic Z-matrix:
 Charge =  0 Multiplicity = 1

                         Standard orientation:
 ---------------------------------------------------------------------
 Center     Atomic      Atomic             Coordinates (Angstroms)
 Number     Number       Type             X           Y           Z
 ---------------------------------------------------------------------
      1          6           0       -4.812894    0.464366   -0.521738
      2          6           0       -5.015891   -0.847119   -1.286587
      3          6           0       -3.696379   -1.331087   -1.899927
      4          6           0       -2.674660   -1.514144   -0.783433
      5          6           0       -2.430707   -0.180924   -0.032246
      6          6           0       -3.746179    0.325229    0.569421
      7          1           0       -3.830359   -2.270047   -2.447549
      8          1           0       -5.400622   -1.616611   -0.604446
      9          1           0       -5.762523   -0.718146   -2.076441
     10          1           0       -4.503050    1.246248   -1.227791
     11          1           0       -5.759010    0.789263   -0.076752
     12          1           0       -3.048832   -2.253395   -0.068368
     13          1           0       -2.111670    0.553738   -0.782577
     14          1           0       -4.089743   -0.369619    1.342779
     15          1           0       -3.553735    1.294484    1.042019
     16          1           0       -3.349303   -0.571907   -2.613788
     17          7           0       -1.358376   -2.013990   -1.232225
     18          6           0       -0.678137   -1.354785   -2.208306
     19          6           0       -0.659134   -2.799303   -0.370279
     20          6           0        0.675503   -1.423495   -2.323608
     21          1           0       -1.273387   -0.737719   -2.869920
     22          6           0        0.696324   -2.905750   -0.412460
     23          1           0       -1.243391   -3.282486    0.405360
     24          6           0        1.435792   -2.117691   -1.335144
     25          1           0        1.161786   -0.870257   -3.115785
     26          1           0        1.185710   -3.490451    0.353371
     27          7           0        2.759775   -2.034849   -1.279188
     28          6           0        3.501766   -2.501750   -0.098255
     29          1           0        3.373390   -3.579197    0.037377
     30          1           0        3.124667   -1.955006    0.778441
     31          6           0        3.494504   -0.973377   -1.983824
     32          1           0        3.734850   -1.297576   -3.003924
     33          1           0        2.875102   -0.072725   -2.005595
     34          7           0       -1.308117   -0.256101    0.890817
     35         16           0       -1.339629   -1.079379    2.301889
     36          8           0       -2.566294   -1.881178    2.328244
     37          8           0       -0.063321   -1.777596    2.469566
     38          6           0       -0.552212    2.658327   -0.051640
     39          6           0       -0.078910    2.121915   -1.259449
     40          6           0       -0.851060    2.190397   -2.417990
     41          6           0       -2.111978    2.786570   -2.404483
     42          6           0       -2.594376    3.319606   -1.211960
     43          6           0       -1.817016    3.254774   -0.055293
     44          1           0        0.872289    1.599934   -1.254795
     45          1           0       -0.456829    1.779385   -3.345392
     46          1           0       -2.706875    2.842153   -3.311998
     47          1           0       -3.572961    3.790806   -1.180671
     48          1           0       -2.202876    3.682555    0.868001
     49          8           0        0.737177    1.535428    1.825300
     50          1           0       -0.340154   -0.023565    0.565884
     51          6           0        1.908654    0.810388    1.218627
     52          8           0        1.540982    0.196401    0.118044
     53          8           0        2.265251   -0.063297    2.275195
     54          1           0        1.567030   -0.742989    2.283454
     55          6           0        3.095577    1.802840    1.132783
     56          1           0        3.008386    2.519709    1.959219
     57          1           0        4.000099    1.219757    1.345761
     58          6           0        0.270981    2.719082    1.239989
     59          1           0       -0.375878    3.181347    1.997706
     60          1           0        1.100790    3.424733    1.082894
     61          6           0       -1.419580    0.160632    3.572649
     62          1           0       -0.532117    0.786056    3.440672
     63          1           0       -2.339002    0.732034    3.433959
     64          1           0       -1.420259   -0.353295    4.535357
     65          6           0        3.287046    2.540396   -0.189793
     66          1           0        3.464688    1.811987   -0.989974
     67          1           0        2.378503    3.077137   -0.482340
     68          6           0        4.449722    3.528872   -0.112868
     69          1           0        4.614098    4.042642   -1.065028
     70          1           0        4.257185    4.291187    0.650380
     71          1           0        5.380104    3.019664    0.163183
     72          6           0        4.937967   -2.108180   -0.422980
     73          1           0        5.553878   -2.036189    0.475149
     74          1           0        5.389138   -2.842820   -1.099285
     75          6           0        4.746389   -0.763825   -1.127460
     76          1           0        4.526594    0.002116   -0.378946
     77          1           0        5.608342   -0.448145   -1.718936
 ---------------------------------------------------------------------

 SCF Done:  E(RM062X) =  -1991.35766187     A.U. after   14 cycles

 The electronic state is 1-A.
 Alpha  occ. eigenvalues --  -90.14387 -19.61971 -19.61925 -19.58564 -19.56657
 Alpha  occ. eigenvalues --  -19.50977 -14.85244 -14.80384 -14.76213 -10.63399
 Alpha  occ. eigenvalues --  -10.62785 -10.62256 -10.62105 -10.60857 -10.59536
 Alpha  occ. eigenvalues --  -10.58281 -10.57986 -10.57945 -10.57185 -10.56894
 Alpha  occ. eigenvalues --  -10.56768 -10.55737 -10.55716 -10.55040 -10.54901
 Alpha  occ. eigenvalues --  -10.54875 -10.54765 -10.54673 -10.54613 -10.54436
 Alpha  occ. eigenvalues --  -10.54423 -10.54348 -10.53008 -10.51357 -10.51319
 Alpha  occ. eigenvalues --  -10.49556  -8.45363  -6.37584  -6.37555  -6.37398
 Alpha  occ. eigenvalues --   -1.22198  -1.13619  -1.13307  -1.10451  -1.09288
 Alpha  occ. eigenvalues --   -1.05771  -1.01986  -0.99203  -0.95819  -0.95005
 Alpha  occ. eigenvalues --   -0.93544  -0.90322  -0.88759  -0.86075  -0.85624
 Alpha  occ. eigenvalues --   -0.84832  -0.84760  -0.84138  -0.83065  -0.82822
 Alpha  occ. eigenvalues --   -0.76694  -0.76140  -0.75804  -0.74275  -0.72934
 Alpha  occ. eigenvalues --   -0.71730  -0.68313  -0.68176  -0.67926  -0.67319
 Alpha  occ. eigenvalues --   -0.66681  -0.65292  -0.64847  -0.63530  -0.60514
 Alpha  occ. eigenvalues --   -0.60392  -0.59723  -0.59289  -0.57774  -0.57664
 Alpha  occ. eigenvalues --   -0.57247  -0.56468  -0.55815  -0.55147  -0.54233
 Alpha  occ. eigenvalues --   -0.53597  -0.52738  -0.52552  -0.52501  -0.51925
 Alpha  occ. eigenvalues --   -0.51572  -0.50957  -0.50565  -0.49915  -0.49455
 Alpha  occ. eigenvalues --   -0.49144  -0.48910  -0.48214  -0.48125  -0.47915
 Alpha  occ. eigenvalues --   -0.47740  -0.47513  -0.46985  -0.46357  -0.46077
 Alpha  occ. eigenvalues --   -0.44956  -0.44730  -0.44216  -0.43827  -0.43276
 Alpha  occ. eigenvalues --   -0.42576  -0.42177  -0.41312  -0.41229  -0.41025
 Alpha  occ. eigenvalues --   -0.40878  -0.40541  -0.39987  -0.39763  -0.39242
 Alpha  occ. eigenvalues --   -0.39220  -0.39101  -0.38405  -0.38091  -0.37693
 Alpha  occ. eigenvalues --   -0.37352  -0.36720  -0.36491  -0.35863  -0.34938
 Alpha  occ. eigenvalues --   -0.34409  -0.34060  -0.31715  -0.31203  -0.29790
 Alpha  occ. eigenvalues --   -0.28868  -0.28600  -0.27701  -0.24544  -0.24201
 Alpha virt. eigenvalues --   -0.01499   0.00381   0.03512   0.03725   0.10119
 Alpha virt. eigenvalues --    0.10853   0.11567   0.12303   0.13143   0.13407
 Alpha virt. eigenvalues --    0.14220   0.14421   0.14744   0.15259   0.15591

 Mulliken charges:
               1
     1  C   -0.306320
     2  C   -0.307336
     3  C   -0.309334
     4  C   -0.059829
     5  C    0.055587
     6  C   -0.310600
     7  H    0.174475
     8  H    0.163042
     9  H    0.165978
    10  H    0.150658
    11  H    0.164071
    12  H    0.208488
    13  H    0.174130
    14  H    0.194573
    15  H    0.163385
    16  H    0.154956
    17  N   -0.432230
    18  C    0.068514
    19  C    0.065616
    20  C   -0.201977
    21  H    0.205875
    22  C   -0.210363
    23  H    0.244192
    24  C    0.446772
    25  H    0.192389
    26  H    0.211263
    27  N   -0.524685
    28  C   -0.169504
    29  H    0.169310
    30  H    0.226918
    31  C   -0.153415
    32  H    0.163966
    33  H    0.207048
    34  N   -0.810626
    35  S    1.250283
    36  O   -0.608873
    37  O   -0.602763
    38  C    0.078453
    39  C   -0.188072
    40  C   -0.190548
    41  C   -0.172159
    42  C   -0.164127
    43  C   -0.211010
    44  H    0.217632
    45  H    0.140247
    46  H    0.154951
    47  H    0.158521
    48  H    0.152280
    49  O   -0.556239
    50  H    0.445552
    51  C    0.720928
    52  O   -0.718803
    53  O   -0.716635
    54  H    0.441185
    55  C   -0.338016
    56  H    0.147617
    57  H    0.150928
    58  C   -0.087853
    59  H    0.137897
    60  H    0.148566
    61  C   -0.663893
    62  H    0.276382
    63  H    0.196968
    64  H    0.218330
    65  C   -0.290200
    66  H    0.133733
    67  H    0.145256
    68  C   -0.473397
    69  H    0.148497
    70  H    0.152982
    71  H    0.146672
    72  C   -0.332443
    73  H    0.186540
    74  H    0.162354
    75  C   -0.342255
    76  H    0.199286
    77  H    0.170254
 Sum of Mulliken charges =  -0.00000

 Dipole moment (field-independent basis, Debye):
    X=             -2.8666    Y=             -2.1093    Z=             -6.2036  Tot=              7.1520
 Quadrupole moment (field-independent basis, Debye-Ang):
   XX=           -206.5079   YY=           -221.9742   ZZ=           -220.1705
   XY=            -12.6902   XZ=             -4.8544   YZ=             10.2107

 Normal termination of Gaussian 16 at Thu Feb  7 13:09:40 2019.
