 Gaussian 16, Revision A.03,
 Gaussian 16:  ES64L-G16RevA.03 25-Dec-2016

 ------------------------------------------
 #p M062X/6-31G* em=gd3 force int=ultrafine
 ------------------------------------------

 -----
 Title
 -----
 Symbolic Z-matrix:
 Charge =  0 Multiplicity = 1

                         Standard orientation:
 ---------------------------------------------------------------------
 Center     Atomic      Atomic             Coordinates (Angstroms)
 Number     Number       Type             X           Y           Z
 ---------------------------------------------------------------------
      1          6           0       -4.860577    0.023628   -0.406315
      2          6           0       -4.877168   -1.243852   -1.266241
      3          6           0       -3.491412   -1.515860   -1.863698
      4          6           0       -2.485871   -1.651411   -0.725118
      5          6           0       -2.410470   -0.345002    0.113507
      6          6           0       -3.802069   -0.058230    0.697549
      7          1           0       -3.495834   -2.421184   -2.481431
      8          1           0       -5.178962   -2.102082   -0.651512
      9          1           0       -5.613063   -1.152661   -2.071831
     10          1           0       -4.636206    0.886765   -1.048701
     11          1           0       -5.851507    0.195189    0.027573
     12          1           0       -2.786818   -2.472888   -0.069853
     13          1           0       -2.206647    0.452000   -0.616518
     14          1           0       -4.059655   -0.845018    1.417929
     15          1           0       -3.746613    0.891687    1.243529
     16          1           0       -3.225590   -0.667378   -2.509424
     17          7           0       -1.114096   -1.983336   -1.174533
     18          6           0       -0.512530   -1.261216   -2.147294
     19          6           0       -0.349444   -2.751742   -0.363431
     20          6           0        0.840476   -1.271038   -2.329555
     21          1           0       -1.163164   -0.650178   -2.759652
     22          6           0        1.009719   -2.810597   -0.482360
     23          1           0       -0.877394   -3.276827    0.425329
     24          6           0        1.671258   -1.991750   -1.428279
     25          1           0        1.264072   -0.677154   -3.128726
     26          1           0        1.555382   -3.403624    0.238157
     27          7           0        3.006789   -1.889683   -1.456655
     28          6           0        3.822776   -2.432202   -0.364215
     29          1           0        3.766151   -3.524668   -0.343902
     30          1           0        3.450407   -2.036165    0.591026
     31          6           0        3.689731   -0.784329   -2.145316
     32          1           0        3.934932   -1.073707   -3.174746
     33          1           0        3.045486    0.098711   -2.153787
     34          7           0       -1.289154   -0.306329    1.031101
     35         16           0       -1.249576   -1.278656    2.274552
     36          8           0       -2.228484   -2.386505    2.210729
     37          8           0        0.152054   -1.720094    2.513181
     38          6           0       -1.249247    2.826847   -0.176063
     39          6           0       -0.446485    2.215145   -1.143102
     40          6           0       -0.899971    2.106168   -2.456622
     41          6           0       -2.164343    2.572772   -2.814157
     42          6           0       -2.973392    3.167632   -1.847278
     43          6           0       -2.512910    3.295392   -0.539271
     44          1           0        0.508237    1.784237   -0.847693
     45          1           0       -0.261727    1.646104   -3.207906
     46          1           0       -2.517178    2.477966   -3.836915
     47          1           0       -3.963647    3.528722   -2.110008
     48          1           0       -3.149047    3.751711    0.216803
     49          8           0        0.159669    1.968129    1.608063
     50          1           0       -0.266711    1.095659    1.367643
     51          6           0        2.428289    0.669373    1.292914
     52          8           0        2.167344    0.219495    0.189464
     53          8           0        2.133952    0.057234    2.426389
     54          1           0        1.475484   -0.678401    2.280987
     55          6           0        3.178746    1.962084    1.511764
     56          1           0        2.722572    2.460707    2.371296
     57          1           0        4.209609    1.708284    1.799288
     58          6           0       -0.767856    2.953033    1.256213
     59          1           0       -1.647034    2.944363    1.924673
     60          1           0       -0.273940    3.923911    1.392239
     61          6           0       -1.651773   -0.297317    3.717224
     62          1           0       -0.962869    0.550629    3.731549
     63          1           0       -2.683661    0.045689    3.618981
     64          1           0       -1.531717   -0.913723    4.609268
     65          6           0        3.163025    2.860451    0.282303
     66          1           0        3.573500    2.314315   -0.575765
     67          1           0        2.119079    3.082437    0.035584
     68          6           0        3.937361    4.156000    0.504358
     69          1           0        3.912955    4.792169   -0.385289
     70          1           0        3.511126    4.726777    1.336059
     71          1           0        4.987140    3.954318    0.744943
     72          6           0        5.224165   -1.914840   -0.676787
     73          1           0        5.848057   -1.861041    0.217552
     74          1           0        5.715778   -2.572672   -1.401123
     75          6           0        4.942890   -0.544993   -1.299100
     76          1           0        4.697909    0.175064   -0.512472
     77          1           0        5.775753   -0.155068   -1.887775
 ---------------------------------------------------------------------

 SCF Done:  E(RM062X) =  -1991.39086873     A.U. after   15 cycles

 The electronic state is 1-A.
 Alpha  occ. eigenvalues --  -90.10413 -19.63424 -19.60141 -19.59368 -19.58649
 Alpha  occ. eigenvalues --  -19.58390 -14.84822 -14.80547 -14.69460 -10.65457
 Alpha  occ. eigenvalues --  -10.63250 -10.62372 -10.61546 -10.59173 -10.59161
 Alpha  occ. eigenvalues --  -10.59017 -10.57809 -10.57425 -10.56870 -10.56654
 Alpha  occ. eigenvalues --  -10.56106 -10.55790 -10.55476 -10.54966 -10.54922
 Alpha  occ. eigenvalues --  -10.54856 -10.54566 -10.54532 -10.54484 -10.53822
 Alpha  occ. eigenvalues --  -10.53723 -10.53561 -10.53110 -10.52878 -10.52663
 Alpha  occ. eigenvalues --  -10.52470  -8.41380  -6.33618  -6.33525  -6.33445
 Alpha  occ. eigenvalues --   -1.19154  -1.17958  -1.12957  -1.10396  -1.09864
 Alpha  occ. eigenvalues --   -1.09200  -1.06224  -0.97578  -0.95244  -0.94847
 Alpha  occ. eigenvalues --   -0.92201  -0.89864  -0.88613  -0.87963  -0.85027
 Alpha  occ. eigenvalues --   -0.84971  -0.83655  -0.83510  -0.83304  -0.80237
 Alpha  occ. eigenvalues --   -0.79065  -0.76379  -0.75678  -0.74660  -0.70956
 Alpha  occ. eigenvalues --   -0.70205  -0.69023  -0.68758  -0.68374  -0.67976
 Alpha  occ. eigenvalues --   -0.65702  -0.64728  -0.63970  -0.63445  -0.61678
 Alpha  occ. eigenvalues --   -0.60292  -0.59418  -0.58932  -0.58384  -0.56179
 Alpha  occ. eigenvalues --   -0.55509  -0.55160  -0.55074  -0.53981  -0.53660
 Alpha  occ. eigenvalues --   -0.53435  -0.53088  -0.52303  -0.51990  -0.51735
 Alpha  occ. eigenvalues --   -0.51189  -0.51028  -0.50614  -0.50311  -0.49836
 Alpha  occ. eigenvalues --   -0.49642  -0.49402  -0.48863  -0.48384  -0.48028
 Alpha  occ. eigenvalues --   -0.47761  -0.47173  -0.46959  -0.46839  -0.45960
 Alpha  occ. eigenvalues --   -0.45900  -0.45262  -0.43981  -0.43655  -0.43430
 Alpha  occ. eigenvalues --   -0.42762  -0.42435  -0.42299  -0.41930  -0.41836
 Alpha  occ. eigenvalues --   -0.41168  -0.40806  -0.40623  -0.39937  -0.39519
 Alpha  occ. eigenvalues --   -0.39385  -0.39166  -0.38678  -0.38377  -0.37763
 Alpha  occ. eigenvalues --   -0.37417  -0.36318  -0.35963  -0.35405  -0.35109
 Alpha  occ. eigenvalues --   -0.34437  -0.33182  -0.32148  -0.31660  -0.31526
 Alpha  occ. eigenvalues --   -0.29818  -0.28869  -0.28334  -0.27607  -0.25478
 Alpha virt. eigenvalues --   -0.01025   0.00642   0.03353   0.03840   0.09074
 Alpha virt. eigenvalues --    0.10091   0.10983   0.11683   0.13003   0.13361
 Alpha virt. eigenvalues --    0.13747   0.14154   0.15284   0.15588   0.15729

 Mulliken charges:
               1
     1  C   -0.304039
     2  C   -0.304233
     3  C   -0.309850
     4  C   -0.073712
     5  C    0.061681
     6  C   -0.305623
     7  H    0.165750
     8  H    0.160895
     9  H    0.159264
    10  H    0.146973
    11  H    0.156632
    12  H    0.213359
    13  H    0.141190
    14  H    0.180486
    15  H    0.147983
    16  H    0.151835
    17  N   -0.424760
    18  C    0.100799
    19  C    0.084945
    20  C   -0.228304
    21  H    0.206291
    22  C   -0.227179
    23  H    0.263704
    24  C    0.428913
    25  H    0.188329
    26  H    0.206599
    27  N   -0.530150
    28  C   -0.155930
    29  H    0.178433
    30  H    0.198635
    31  C   -0.147495
    32  H    0.169420
    33  H    0.196908
    34  N   -0.754702
    35  S    1.248323
    36  O   -0.646821
    37  O   -0.671344
    38  C    0.048612
    39  C   -0.176719
    40  C   -0.187062
    41  C   -0.170366
    42  C   -0.162908
    43  C   -0.196743
    44  H    0.199174
    45  H    0.140289
    46  H    0.156583
    47  H    0.161694
    48  H    0.155783
    49  O   -0.707740
    50  H    0.478858
    51  C    0.639482
    52  O   -0.524200
    53  O   -0.642129
    54  H    0.485430
    55  C   -0.366174
    56  H    0.198999
    57  H    0.163953
    58  C   -0.070687
    59  H    0.129366
    60  H    0.163859
    61  C   -0.654655
    62  H    0.217539
    63  H    0.188245
    64  H    0.208434
    65  C   -0.286751
    66  H    0.142607
    67  H    0.170643
    68  C   -0.480640
    69  H    0.158085
    70  H    0.158976
    71  H    0.148989
    72  C   -0.337559
    73  H    0.183648
    74  H    0.170123
    75  C   -0.335596
    76  H    0.183870
    77  H    0.173475
 Sum of Mulliken charges =  -0.00000

 Dipole moment (field-independent basis, Debye):
    X=              1.6091    Y=             -0.4191    Z=             -6.4674  Tot=              6.6777
 Quadrupole moment (field-independent basis, Debye-Ang):
   XX=           -197.3396   YY=           -224.3440   ZZ=           -221.2361
   XY=            -12.3400   XZ=             -1.7978   YZ=             12.0892

 Normal termination of Gaussian 16 at Fri Feb  8 02:08:50 2019.
