 Gaussian 16, Revision A.03,
 Gaussian 16:  ES64L-G16RevA.03 25-Dec-2016

 ------------------------------------------
 #p M062X/6-31G* em=gd3 force int=ultrafine
 ------------------------------------------

 -----
 Title
 -----
 Symbolic Z-matrix:
 Charge =  0 Multiplicity = 1

                         Standard orientation:
 ---------------------------------------------------------------------
 Center     Atomic      Atomic             Coordinates (Angstroms)
 Number     Number       Type             X           Y           Z
 ---------------------------------------------------------------------
      1          6           0       -4.859769    0.314516   -0.481176
      2          6           0       -4.982490   -0.965580   -1.313035
      3          6           0       -3.624329   -1.365713   -1.903255
      4          6           0       -2.628361   -1.559793   -0.764350
      5          6           0       -2.461229   -0.257128    0.067275
      6          6           0       -3.824748    0.159045    0.637021
      7          1           0       -3.705693   -2.277670   -2.505559
      8          1           0       -5.355353   -1.780727   -0.679208
      9          1           0       -5.708033   -0.831542   -2.122128
     10          1           0       -4.549543    1.138402   -1.139584
     11          1           0       -5.835321    0.587639   -0.065028
     12          1           0       -2.978765   -2.357151   -0.101410
     13          1           0       -2.184951    0.516083   -0.666214
     14          1           0       -4.157634   -0.584277    1.371693
     15          1           0       -3.685442    1.111975    1.161745
     16          1           0       -3.291379   -0.554327   -2.565150
     17          7           0       -1.275545   -1.974641   -1.209310
     18          6           0       -0.630216   -1.296207   -2.187273
     19          6           0       -0.546251   -2.742164   -0.364625
     20          6           0        0.725288   -1.351603   -2.343177
     21          1           0       -1.247538   -0.678642   -2.826850
     22          6           0        0.812940   -2.845927   -0.455999
     23          1           0       -1.102302   -3.234412    0.426086
     24          6           0        1.519414   -2.071173   -1.406962
     25          1           0        1.180430   -0.785466   -3.145352
     26          1           0        1.323570   -3.433067    0.294303
     27          7           0        2.858844   -2.003482   -1.404305
     28          6           0        3.623653   -2.498907   -0.251391
     29          1           0        3.539890   -3.585897   -0.166966
     30          1           0        3.230294   -2.036749    0.664856
     31          6           0        3.585753   -0.932926   -2.107397
     32          1           0        3.854570   -1.260408   -3.118694
     33          1           0        2.962072   -0.037017   -2.163771
     34          7           0       -1.342520   -0.313138    0.976821
     35         16           0       -1.348574   -1.205822    2.283275
     36          8           0       -2.440534   -2.201978    2.317902
     37          8           0        0.018963   -1.755443    2.487041
     38          6           0       -0.827299    2.799078   -0.097544
     39          6           0       -0.223524    2.137465   -1.174970
     40          6           0       -0.853267    2.121402   -2.418248
     41          6           0       -2.100370    2.723440   -2.593347
     42          6           0       -2.715363    3.353578   -1.514646
     43          6           0       -2.075030    3.390761   -0.279055
     44          1           0        0.715437    1.607043   -1.024510
     45          1           0       -0.370185    1.631962   -3.261612
     46          1           0       -2.591228    2.701577   -3.561733
     47          1           0       -3.691368    3.815132   -1.628719
     48          1           0       -2.550566    3.875654    0.569939
     49          8           0        0.298350    1.612854    1.692824
     50          1           0       -0.306818    0.889642    1.313456
     51          6           0        2.434159    0.574922    1.164728
     52          8           0        2.093991    0.168068    0.068476
     53          8           0        2.280455   -0.123326    2.284781
     54          1           0        1.544127   -0.781357    2.179697
     55          6           0        3.158954    1.884582    1.376203
     56          1           0        2.618109    2.421924    2.162406
     57          1           0        4.154293    1.660108    1.782479
     58          6           0       -0.175432    2.850995    1.267288
     59          1           0       -0.896200    3.272825    1.985899
     60          1           0        0.685617    3.536462    1.244920
     61          6           0       -1.563008   -0.079153    3.660962
     62          1           0       -0.768404    0.665209    3.568459
     63          1           0       -2.543269    0.394489    3.579027
     64          1           0       -1.473001   -0.633517    4.595892
     65          6           0        3.274701    2.724936    0.106660
     66          1           0        3.666905    2.105509   -0.708509
     67          1           0        2.276981    3.041856   -0.218775
     68          6           0        4.167037    3.947011    0.309715
     69          1           0        4.283934    4.516281   -0.617021
     70          1           0        3.750629    4.620541    1.066245
     71          1           0        5.165077    3.647450    0.647570
     72          6           0        5.046939   -2.031799   -0.541030
     73          1           0        5.642327   -1.949439    0.370541
     74          1           0        5.544035   -2.734311   -1.217607
     75          6           0        4.821274   -0.687143   -1.235463
     76          1           0        4.579567    0.074758   -0.489373
     77          1           0        5.680515   -0.345068   -1.815935
 ---------------------------------------------------------------------

 SCF Done:  E(RM062X) =  -1991.38138156     A.U. after   15 cycles

 The electronic state is 1-A.
 Alpha  occ. eigenvalues --  -90.10217 -19.63689 -19.60233 -19.58595 -19.58285
 Alpha  occ. eigenvalues --  -19.58270 -14.84801 -14.80414 -14.69260 -10.65902
 Alpha  occ. eigenvalues --  -10.63217 -10.62442 -10.61635 -10.59267 -10.59060
 Alpha  occ. eigenvalues --  -10.58877 -10.57831 -10.57321 -10.56771 -10.56722
 Alpha  occ. eigenvalues --  -10.55926 -10.55687 -10.55635 -10.55105 -10.55034
 Alpha  occ. eigenvalues --  -10.54945 -10.54656 -10.54615 -10.54519 -10.54001
 Alpha  occ. eigenvalues --  -10.53601 -10.53601 -10.53554 -10.53277 -10.52949
 Alpha  occ. eigenvalues --  -10.52619  -8.41168  -6.33404  -6.33314  -6.33236
 Alpha  occ. eigenvalues --   -1.19326  -1.17667  -1.12926  -1.10108  -1.10004
 Alpha  occ. eigenvalues --   -1.09047  -1.05970  -0.97562  -0.95384  -0.94734
 Alpha  occ. eigenvalues --   -0.92193  -0.89815  -0.88564  -0.88412  -0.85109
 Alpha  occ. eigenvalues --   -0.84808  -0.83727  -0.83559  -0.83274  -0.79985
 Alpha  occ. eigenvalues --   -0.79463  -0.76308  -0.75604  -0.74647  -0.70954
 Alpha  occ. eigenvalues --   -0.70293  -0.69402  -0.68655  -0.68349  -0.68116
 Alpha  occ. eigenvalues --   -0.66022  -0.64765  -0.63920  -0.63541  -0.61607
 Alpha  occ. eigenvalues --   -0.60286  -0.59376  -0.59130  -0.58358  -0.56170
 Alpha  occ. eigenvalues --   -0.55763  -0.55332  -0.55174  -0.54518  -0.53920
 Alpha  occ. eigenvalues --   -0.53476  -0.53051  -0.52651  -0.51819  -0.51634
 Alpha  occ. eigenvalues --   -0.51061  -0.50942  -0.50628  -0.49997  -0.49845
 Alpha  occ. eigenvalues --   -0.49754  -0.49518  -0.48762  -0.48313  -0.48046
 Alpha  occ. eigenvalues --   -0.47709  -0.47265  -0.47096  -0.47001  -0.45788
 Alpha  occ. eigenvalues --   -0.45503  -0.45153  -0.43979  -0.43740  -0.43488
 Alpha  occ. eigenvalues --   -0.43089  -0.42840  -0.42139  -0.42006  -0.41803
 Alpha  occ. eigenvalues --   -0.41238  -0.40932  -0.40515  -0.39892  -0.39670
 Alpha  occ. eigenvalues --   -0.39417  -0.39371  -0.39156  -0.38398  -0.38120
 Alpha  occ. eigenvalues --   -0.37424  -0.36303  -0.35833  -0.35327  -0.35163
 Alpha  occ. eigenvalues --   -0.34211  -0.32953  -0.31953  -0.31701  -0.31171
 Alpha  occ. eigenvalues --   -0.29986  -0.28762  -0.28341  -0.27281  -0.25344
 Alpha virt. eigenvalues --   -0.01079   0.00687   0.03096   0.03665   0.08748
 Alpha virt. eigenvalues --    0.10150   0.10973   0.11772   0.12969   0.13481
 Alpha virt. eigenvalues --    0.13752   0.14316   0.14999   0.15440   0.15871

 Mulliken charges:
               1
     1  C   -0.303823
     2  C   -0.304495
     3  C   -0.309842
     4  C   -0.070750
     5  C    0.069685
     6  C   -0.304808
     7  H    0.167180
     8  H    0.161594
     9  H    0.159337
    10  H    0.144625
    11  H    0.157210
    12  H    0.208359
    13  H    0.140075
    14  H    0.182411
    15  H    0.150029
    16  H    0.149801
    17  N   -0.424501
    18  C    0.096973
    19  C    0.093779
    20  C   -0.226413
    21  H    0.204462
    22  C   -0.227867
    23  H    0.258176
    24  C    0.426216
    25  H    0.187372
    26  H    0.207916
    27  N   -0.525995
    28  C   -0.159274
    29  H    0.178083
    30  H    0.197828
    31  C   -0.145293
    32  H    0.169504
    33  H    0.193677
    34  N   -0.773031
    35  S    1.244644
    36  O   -0.636153
    37  O   -0.667484
    38  C    0.052423
    39  C   -0.176975
    40  C   -0.188851
    41  C   -0.169539
    42  C   -0.160341
    43  C   -0.199965
    44  H    0.203845
    45  H    0.140009
    46  H    0.157379
    47  H    0.162570
    48  H    0.158866
    49  O   -0.718017
    50  H    0.486663
    51  C    0.667718
    52  O   -0.520964
    53  O   -0.646435
    54  H    0.481700
    55  C   -0.375309
    56  H    0.202044
    57  H    0.167876
    58  C   -0.062851
    59  H    0.126093
    60  H    0.142090
    61  C   -0.665551
    62  H    0.232505
    63  H    0.184637
    64  H    0.205313
    65  C   -0.291498
    66  H    0.147501
    67  H    0.162472
    68  C   -0.480702
    69  H    0.160090
    70  H    0.158980
    71  H    0.152281
    72  C   -0.335673
    73  H    0.184168
    74  H    0.169478
    75  C   -0.335384
    76  H    0.179553
    77  H    0.172597
 Sum of Mulliken charges =  -0.00000

 Dipole moment (field-independent basis, Debye):
    X=              1.7161    Y=              0.2026    Z=             -6.7851  Tot=              7.0016
 Quadrupole moment (field-independent basis, Debye-Ang):
   XX=           -200.4355   YY=           -222.5163   ZZ=           -222.9688
   XY=            -11.5922   XZ=              1.2072   YZ=             13.2316

 Normal termination of Gaussian 16 at Thu Feb  7 21:30:48 2019.
