 Gaussian 16, Revision A.03,
 Gaussian 16:  ES64L-G16RevA.03 25-Dec-2016

 ------------------------------------------
 #p M062X/6-31G* em=gd3 force int=ultrafine
 ------------------------------------------

 -----
 Title
 -----
 Symbolic Z-matrix:
 Charge =  0 Multiplicity = 1

                         Standard orientation:
 ---------------------------------------------------------------------
 Center     Atomic      Atomic             Coordinates (Angstroms)
 Number     Number       Type             X           Y           Z
 ---------------------------------------------------------------------
      1          6           0       -4.844313    0.420181   -0.512255
      2          6           0       -4.987745   -0.852427   -1.352029
      3          6           0       -3.634761   -1.269374   -1.941007
      4          6           0       -2.644051   -1.492281   -0.802266
      5          6           0       -2.462604   -0.202496    0.038894
      6          6           0       -3.816293    0.240539    0.609513
      7          1           0       -3.726133   -2.177099   -2.547638
      8          1           0       -5.377583   -1.666181   -0.726450
      9          1           0       -5.707749   -0.699395   -2.162361
     10          1           0       -4.521016    1.244042   -1.163396
     11          1           0       -5.814487    0.704622   -0.091810
     12          1           0       -3.017023   -2.287454   -0.148979
     13          1           0       -2.136096    0.577631   -0.662256
     14          1           0       -4.169322   -0.502588    1.333578
     15          1           0       -3.663189    1.187220    1.140558
     16          1           0       -3.285460   -0.459621   -2.595792
     17          7           0       -1.302326   -1.933753   -1.247232
     18          6           0       -0.637027   -1.252737   -2.213075
     19          6           0       -0.592797   -2.735046   -0.413783
     20          6           0        0.716509   -1.327772   -2.357899
     21          1           0       -1.238757   -0.616631   -2.849247
     22          6           0        0.763392   -2.852332   -0.488170
     23          1           0       -1.165519   -3.240423    0.356207
     24          6           0        1.491986   -2.066229   -1.418347
     25          1           0        1.188058   -0.756816   -3.146784
     26          1           0        1.259814   -3.462810    0.252947
     27          7           0        2.825443   -2.014331   -1.399005
     28          6           0        3.574541   -2.527294   -0.242355
     29          1           0        3.461512   -3.611465   -0.156696
     30          1           0        3.190520   -2.041514    0.665701
     31          6           0        3.573304   -0.947215   -2.086743
     32          1           0        3.839615   -1.270434   -3.100148
     33          1           0        2.963727   -0.041392   -2.128674
     34          7           0       -1.356811   -0.323301    0.973428
     35         16           0       -1.397941   -1.222338    2.319589
     36          8           0       -2.571111   -2.105549    2.280574
     37          8           0       -0.082782   -1.862359    2.490668
     38          6           0       -0.691673    2.754550   -0.066749
     39          6           0       -0.132800    2.109581   -1.179696
     40          6           0       -0.788500    2.145146   -2.409146
     41          6           0       -2.024695    2.781572   -2.538769
     42          6           0       -2.595653    3.398604   -1.428001
     43          6           0       -1.925467    3.386714   -0.206650
     44          1           0        0.794149    1.550528   -1.057040
     45          1           0       -0.335142    1.670230   -3.277761
     46          1           0       -2.536575    2.802065   -3.496386
     47          1           0       -3.560474    3.890475   -1.508381
     48          1           0       -2.368030    3.863227    0.665243
     49          8           0        0.383109    1.423273    1.626601
     50          1           0       -0.560159    0.471117    1.090713
     51          6           0        2.266052    0.628653    1.175593
     52          8           0        2.054148    0.154592    0.061745
     53          8           0        2.233383   -0.133345    2.289542
     54          1           0        1.532272   -0.810260    2.177122
     55          6           0        3.088475    1.883612    1.387888
     56          1           0        2.660978    2.476546    2.202834
     57          1           0        4.064918    1.526544    1.745777
     58          6           0       -0.008342    2.695549    1.291026
     59          1           0       -0.707904    3.117049    2.038908
     60          1           0        0.851711    3.397246    1.276880
     61          6           0       -1.533233   -0.052226    3.656964
     62          1           0       -0.700143    0.643768    3.509500
     63          1           0       -2.494065    0.458690    3.575617
     64          1           0       -1.452197   -0.593326    4.600809
     65          6           0        3.287073    2.716073    0.124176
     66          1           0        3.669745    2.067892   -0.672981
     67          1           0        2.324972    3.094583   -0.238595
     68          6           0        4.246599    3.881302    0.356875
     69          1           0        4.417012    4.452427   -0.560685
     70          1           0        3.852998    4.570603    1.111707
     71          1           0        5.218110    3.521862    0.714090
     72          6           0        5.007401   -2.094932   -0.533130
     73          1           0        5.609080   -2.041481    0.376160
     74          1           0        5.482083   -2.799427   -1.224381
     75          6           0        4.804442   -0.734264   -1.201849
     76          1           0        4.554191    0.010027   -0.440648
     77          1           0        5.671579   -0.388572   -1.768126
 ---------------------------------------------------------------------

 SCF Done:  E(RM062X) =  -1991.35886725     A.U. after   15 cycles

 The electronic state is 1-A.
 Alpha  occ. eigenvalues --  -90.13144 -19.61433 -19.61084 -19.60838 -19.57146
 Alpha  occ. eigenvalues --  -19.53564 -14.85323 -14.80565 -14.73708 -10.64601
 Alpha  occ. eigenvalues --  -10.63530 -10.62816 -10.62266 -10.60530 -10.58740
 Alpha  occ. eigenvalues --  -10.58702 -10.58645 -10.58076 -10.57245 -10.56432
 Alpha  occ. eigenvalues --  -10.55600 -10.55362 -10.55189 -10.55075 -10.54820
 Alpha  occ. eigenvalues --  -10.54497 -10.54431 -10.54430 -10.54366 -10.53858
 Alpha  occ. eigenvalues --  -10.53692 -10.53302 -10.52932 -10.52281 -10.51985
 Alpha  occ. eigenvalues --  -10.51926  -8.44147  -6.36368  -6.36309  -6.36207
 Alpha  occ. eigenvalues --   -1.20903  -1.16624  -1.13530  -1.09460  -1.09180
 Alpha  occ. eigenvalues --   -1.07019  -1.03508  -1.00173  -0.95583  -0.94458
 Alpha  occ. eigenvalues --   -0.93311  -0.90294  -0.88838  -0.87037  -0.85375
 Alpha  occ. eigenvalues --   -0.84638  -0.84400  -0.83650  -0.82745  -0.81947
 Alpha  occ. eigenvalues --   -0.77979  -0.76735  -0.75899  -0.72268  -0.71786
 Alpha  occ. eigenvalues --   -0.71368  -0.68537  -0.68479  -0.68030  -0.67250
 Alpha  occ. eigenvalues --   -0.66309  -0.64757  -0.64163  -0.63260  -0.61689
 Alpha  occ. eigenvalues --   -0.60438  -0.60147  -0.58491  -0.58285  -0.57145
 Alpha  occ. eigenvalues --   -0.56555  -0.56355  -0.54989  -0.54200  -0.53809
 Alpha  occ. eigenvalues --   -0.53264  -0.53024  -0.52449  -0.52148  -0.51890
 Alpha  occ. eigenvalues --   -0.51461  -0.51014  -0.50768  -0.50330  -0.49947
 Alpha  occ. eigenvalues --   -0.49874  -0.48652  -0.48473  -0.48353  -0.47598
 Alpha  occ. eigenvalues --   -0.47291  -0.47214  -0.46993  -0.46197  -0.46094
 Alpha  occ. eigenvalues --   -0.45793  -0.44912  -0.44673  -0.43622  -0.43229
 Alpha  occ. eigenvalues --   -0.42665  -0.42157  -0.41964  -0.41799  -0.41383
 Alpha  occ. eigenvalues --   -0.40999  -0.40640  -0.40062  -0.39813  -0.39621
 Alpha  occ. eigenvalues --   -0.39509  -0.38743  -0.38342  -0.38064  -0.38021
 Alpha  occ. eigenvalues --   -0.37615  -0.37266  -0.36691  -0.36455  -0.35173
 Alpha  occ. eigenvalues --   -0.34515  -0.33971  -0.33330  -0.29816  -0.29594
 Alpha  occ. eigenvalues --   -0.29217  -0.28599  -0.28094  -0.25670  -0.24607
 Alpha virt. eigenvalues --   -0.01500   0.00309   0.03766   0.04481   0.10202
 Alpha virt. eigenvalues --    0.11111   0.11274   0.11903   0.12447   0.13434
 Alpha virt. eigenvalues --    0.13848   0.14032   0.14981   0.15350   0.15437

 Mulliken charges:
               1
     1  C   -0.306718
     2  C   -0.306604
     3  C   -0.311498
     4  C   -0.065244
     5  C    0.071042
     6  C   -0.307134
     7  H    0.171763
     8  H    0.162193
     9  H    0.164342
    10  H    0.152039
    11  H    0.162237
    12  H    0.209178
    13  H    0.167546
    14  H    0.187500
    15  H    0.160814
    16  H    0.156157
    17  N   -0.431002
    18  C    0.091302
    19  C    0.091286
    20  C   -0.220031
    21  H    0.206906
    22  C   -0.226021
    23  H    0.250743
    24  C    0.433040
    25  H    0.192238
    26  H    0.209053
    27  N   -0.520764
    28  C   -0.160899
    29  H    0.174248
    30  H    0.205062
    31  C   -0.147072
    32  H    0.167464
    33  H    0.200644
    34  N   -0.820241
    35  S    1.245165
    36  O   -0.614004
    37  O   -0.623745
    38  C    0.058043
    39  C   -0.194395
    40  C   -0.190347
    41  C   -0.175864
    42  C   -0.162015
    43  C   -0.206270
    44  H    0.210941
    45  H    0.134732
    46  H    0.152512
    47  H    0.156921
    48  H    0.153977
    49  O   -0.697500
    50  H    0.459570
    51  C    0.678192
    52  O   -0.561409
    53  O   -0.656378
    54  H    0.463509
    55  C   -0.353084
    56  H    0.186479
    57  H    0.156074
    58  C   -0.034329
    59  H    0.094567
    60  H    0.112709
    61  C   -0.671779
    62  H    0.266092
    63  H    0.196086
    64  H    0.215175
    65  C   -0.291145
    66  H    0.141546
    67  H    0.162448
    68  C   -0.478620
    69  H    0.155109
    70  H    0.157223
    71  H    0.148826
    72  C   -0.334734
    73  H    0.184942
    74  H    0.166295
    75  C   -0.336233
    76  H    0.190281
    77  H    0.170865
 Sum of Mulliken charges =  -0.00000

 Dipole moment (field-independent basis, Debye):
    X=             -0.4968    Y=             -2.0444    Z=             -6.1967  Tot=              6.5441
 Quadrupole moment (field-independent basis, Debye-Ang):
   XX=           -201.4394   YY=           -225.6369   ZZ=           -219.9292
   XY=            -11.5755   XZ=             -1.9582   YZ=             10.6548

 Normal termination of Gaussian 16 at Thu Feb  7 19:25:47 2019.
