 Gaussian 16, Revision A.03,
 Gaussian 16:  ES64L-G16RevA.03 25-Dec-2016

 ------------------------------------------
 #p M062X/6-31G* em=gd3 force int=ultrafine
 ------------------------------------------

 -----
 Title
 -----
 Symbolic Z-matrix:
 Charge =  0 Multiplicity = 1

                         Standard orientation:
 ---------------------------------------------------------------------
 Center     Atomic      Atomic             Coordinates (Angstroms)
 Number     Number       Type             X           Y           Z
 ---------------------------------------------------------------------
      1          6           0       -4.859174    0.527748   -0.541741
      2          6           0       -5.032589   -0.756995   -1.356967
      3          6           0       -3.691784   -1.216896   -1.941958
      4          6           0       -2.702059   -1.444141   -0.803578
      5          6           0       -2.499526   -0.144163    0.012072
      6          6           0       -3.835095    0.343991    0.581355
      7          1           0       -3.805547   -2.132840   -2.531446
      8          1           0       -5.438759   -1.549101   -0.714301
      9          1           0       -5.751685   -0.602477   -2.167411
     10          1           0       -4.517723    1.332361   -1.207333
     11          1           0       -5.820755    0.842023   -0.123477
     12          1           0       -3.091879   -2.218251   -0.134551
     13          1           0       -2.143654    0.618425   -0.692847
     14          1           0       -4.204140   -0.376947    1.318856
     15          1           0       -3.654400    1.294621    1.095975
     16          1           0       -3.323519   -0.428693   -2.612316
     17          7           0       -1.372101   -1.919497   -1.240303
     18          6           0       -0.685726   -1.259466   -2.211047
     19          6           0       -0.679401   -2.728575   -0.395777
     20          6           0        0.664920   -1.357458   -2.343961
     21          1           0       -1.272815   -0.622732   -2.860278
     22          6           0        0.672906   -2.865215   -0.455859
     23          1           0       -1.266162   -3.220561    0.372170
     24          6           0        1.423914   -2.092604   -1.384340
     25          1           0        1.153311   -0.804110   -3.135004
     26          1           0        1.155340   -3.479160    0.291398
     27          7           0        2.751432   -2.068244   -1.359053
     28          6           0        3.487744   -2.582114   -0.193011
     29          1           0        3.342562   -3.661169   -0.088786
     30          1           0        3.119491   -2.054761    0.698315
     31          6           0        3.524880   -1.027411   -2.058325
     32          1           0        3.782916   -1.370319   -3.068105
     33          1           0        2.934248   -0.109759   -2.099368
     34          7           0       -1.417162   -0.268709    0.971731
     35         16           0       -1.437176   -1.150571    2.342859
     36          8           0       -2.669610   -1.941579    2.329165
     37          8           0       -0.163646   -1.858441    2.476619
     38          6           0       -0.530227    2.679296   -0.066779
     39          6           0       -0.037582    2.071823   -1.229761
     40          6           0       -0.758568    2.153002   -2.420715
     41          6           0       -1.985594    2.814588   -2.470670
     42          6           0       -2.488162    3.406756   -1.313488
     43          6           0       -1.760547    3.339895   -0.125658
     44          1           0        0.886742    1.497799   -1.158219
     45          1           0       -0.354234    1.697402   -3.322617
     46          1           0       -2.541987    2.874601   -3.401937
     47          1           0       -3.443934    3.922970   -1.335855
     48          1           0       -2.158041    3.806546    0.773510
     49          8           0        0.675172    1.365797    1.652821
     50          1           0       -0.533265    0.260316    0.859733
     51          6           0        2.048854    0.737017    1.179388
     52          8           0        1.904846    0.181725    0.027515
     53          8           0        2.263639   -0.149361    2.256685
     54          1           0        1.570642   -0.829251    2.171909
     55          6           0        3.127122    1.830252    1.310457
     56          1           0        2.891175    2.496287    2.150024
     57          1           0        4.051483    1.308988    1.591712
     58          6           0        0.243937    2.633548    1.246318
     59          1           0       -0.422085    3.018317    2.034162
     60          1           0        1.084624    3.340257    1.192489
     61          6           0       -1.476563    0.050236    3.654419
     62          1           0       -0.591093    0.676516    3.506613
     63          1           0       -2.399107    0.626354    3.568895
     64          1           0       -1.432753   -0.485708    4.603802
     65          6           0        3.379046    2.622761    0.029851
     66          1           0        3.690723    1.927440   -0.757845
     67          1           0        2.452167    3.077425   -0.339564
     68          6           0        4.434674    3.707977    0.227783
     69          1           0        4.636044    4.253540   -0.699365
     70          1           0        4.110336    4.435252    0.980608
     71          1           0        5.378968    3.275728    0.577270
     72          6           0        4.930892   -2.197689   -0.496831
     73          1           0        5.537559   -2.152531    0.409501
     74          1           0        5.382537   -2.921760   -1.184314
     75          6           0        4.757516   -0.836838   -1.172303
     76          1           0        4.507418   -0.090718   -0.412811
     77          1           0        5.632823   -0.509114   -1.737257
 ---------------------------------------------------------------------

 SCF Done:  E(RM062X) =  -1991.35562616     A.U. after   15 cycles

 The electronic state is 1-A.
 Alpha  occ. eigenvalues --  -90.14737 -19.62369 -19.62078 -19.58589 -19.57064
 Alpha  occ. eigenvalues --  -19.50682 -14.85181 -14.80035 -14.76497 -10.63154
 Alpha  occ. eigenvalues --  -10.62608 -10.62246 -10.62124 -10.61080 -10.59869
 Alpha  occ. eigenvalues --  -10.57763 -10.57755 -10.57626 -10.57037 -10.56968
 Alpha  occ. eigenvalues --  -10.56885 -10.56357 -10.55871 -10.55124 -10.55081
 Alpha  occ. eigenvalues --  -10.55043 -10.54887 -10.54688 -10.54679 -10.54652
 Alpha  occ. eigenvalues --  -10.54462 -10.54047 -10.53126 -10.51104 -10.50996
 Alpha  occ. eigenvalues --  -10.49583  -8.45708  -6.37935  -6.37884  -6.37756
 Alpha  occ. eigenvalues --   -1.22525  -1.13454  -1.12835  -1.10728  -1.08871
 Alpha  occ. eigenvalues --   -1.05970  -1.02424  -1.00060  -0.95827  -0.95222
 Alpha  occ. eigenvalues --   -0.93469  -0.90116  -0.88566  -0.86531  -0.85372
 Alpha  occ. eigenvalues --   -0.84928  -0.84850  -0.83706  -0.83315  -0.83054
 Alpha  occ. eigenvalues --   -0.76564  -0.75995  -0.75550  -0.74232  -0.73257
 Alpha  occ. eigenvalues --   -0.71755  -0.68231  -0.68137  -0.67747  -0.67483
 Alpha  occ. eigenvalues --   -0.66429  -0.65485  -0.64880  -0.63333  -0.60511
 Alpha  occ. eigenvalues --   -0.60381  -0.59948  -0.59413  -0.57943  -0.57688
 Alpha  occ. eigenvalues --   -0.57150  -0.56388  -0.55663  -0.55088  -0.54383
 Alpha  occ. eigenvalues --   -0.53557  -0.53071  -0.52670  -0.52467  -0.52173
 Alpha  occ. eigenvalues --   -0.51680  -0.50809  -0.50132  -0.49921  -0.49359
 Alpha  occ. eigenvalues --   -0.49243  -0.48935  -0.48492  -0.48186  -0.48017
 Alpha  occ. eigenvalues --   -0.47719  -0.47637  -0.47159  -0.46180  -0.45815
 Alpha  occ. eigenvalues --   -0.45300  -0.45170  -0.44391  -0.44029  -0.43190
 Alpha  occ. eigenvalues --   -0.42469  -0.42331  -0.41186  -0.40870  -0.40754
 Alpha  occ. eigenvalues --   -0.40671  -0.40398  -0.40129  -0.39839  -0.39411
 Alpha  occ. eigenvalues --   -0.39140  -0.38898  -0.38697  -0.38312  -0.37789
 Alpha  occ. eigenvalues --   -0.37427  -0.36512  -0.36441  -0.36055  -0.35024
 Alpha  occ. eigenvalues --   -0.34553  -0.34289  -0.31795  -0.31338  -0.30023
 Alpha  occ. eigenvalues --   -0.29287  -0.28825  -0.27766  -0.24320  -0.24005
 Alpha virt. eigenvalues --   -0.01228   0.00581   0.03204   0.03564   0.10155
 Alpha virt. eigenvalues --    0.10592   0.11340   0.12566   0.13168   0.13320
 Alpha virt. eigenvalues --    0.14149   0.14430   0.15061   0.15526   0.15545

 Mulliken charges:
               1
     1  C   -0.306467
     2  C   -0.307793
     3  C   -0.311169
     4  C   -0.060408
     5  C    0.065073
     6  C   -0.306812
     7  H    0.175494
     8  H    0.163266
     9  H    0.166763
    10  H    0.151228
    11  H    0.164925
    12  H    0.207279
    13  H    0.174612
    14  H    0.192637
    15  H    0.160654
    16  H    0.156371
    17  N   -0.437402
    18  C    0.079444
    19  C    0.080122
    20  C   -0.209627
    21  H    0.202872
    22  C   -0.220885
    23  H    0.243524
    24  C    0.449249
    25  H    0.192029
    26  H    0.209722
    27  N   -0.518290
    28  C   -0.165309
    29  H    0.167010
    30  H    0.221092
    31  C   -0.145430
    32  H    0.160342
    33  H    0.205427
    34  N   -0.810787
    35  S    1.238130
    36  O   -0.603489
    37  O   -0.591563
    38  C    0.049744
    39  C   -0.196679
    40  C   -0.192566
    41  C   -0.172391
    42  C   -0.165333
    43  C   -0.205107
    44  H    0.234339
    45  H    0.141608
    46  H    0.156256
    47  H    0.159856
    48  H    0.154284
    49  O   -0.599157
    50  H    0.450267
    51  C    0.715409
    52  O   -0.689140
    53  O   -0.702573
    54  H    0.432392
    55  C   -0.340243
    56  H    0.143785
    57  H    0.150882
    58  C   -0.080433
    59  H    0.130972
    60  H    0.156371
    61  C   -0.666242
    62  H    0.267717
    63  H    0.200293
    64  H    0.222872
    65  C   -0.285163
    66  H    0.142674
    67  H    0.140414
    68  C   -0.474944
    69  H    0.148258
    70  H    0.149234
    71  H    0.148556
    72  C   -0.334051
    73  H    0.184388
    74  H    0.159965
    75  C   -0.338301
    76  H    0.205113
    77  H    0.164838
 Sum of Mulliken charges =  -0.00000

 Dipole moment (field-independent basis, Debye):
    X=             -3.5719    Y=             -1.5383    Z=             -5.7121  Tot=              6.9104
 Quadrupole moment (field-independent basis, Debye-Ang):
   XX=           -208.6023   YY=           -222.4689   ZZ=           -218.2707
   XY=            -13.4142   XZ=             -4.1142   YZ=             10.7894

 Normal termination of Gaussian 16 at Thu Feb  7 09:58:10 2019.
