 Gaussian 16, Revision A.03,
 Gaussian 16:  ES64L-G16RevA.03 25-Dec-2016

 ------------------------------------------
 #p M062X/6-31G* em=gd3 force int=ultrafine
 ------------------------------------------

 -----
 Title
 -----
 Symbolic Z-matrix:
 Charge =  0 Multiplicity = 1

                         Standard orientation:
 ---------------------------------------------------------------------
 Center     Atomic      Atomic             Coordinates (Angstroms)
 Number     Number       Type             X           Y           Z
 ---------------------------------------------------------------------
      1          6           0       -4.863973    0.031237   -0.413893
      2          6           0       -4.884369   -1.242875   -1.263881
      3          6           0       -3.499233   -1.524235   -1.858470
      4          6           0       -2.494202   -1.652308   -0.718554
      5          6           0       -2.415048   -0.338833    0.109323
      6          6           0       -3.806207   -0.045199    0.691161
      7          1           0       -3.506256   -2.435244   -2.467831
      8          1           0       -5.189355   -2.095266   -0.642655
      9          1           0       -5.619530   -1.155661   -2.070594
     10          1           0       -4.636384    0.888545   -1.062940
     11          1           0       -5.854630    0.209501    0.017911
     12          1           0       -2.798206   -2.466750   -0.055876
     13          1           0       -2.209748    0.452592   -0.626471
     14          1           0       -4.065779   -0.826534    1.416786
     15          1           0       -3.748612    0.908371    1.230316
     16          1           0       -3.230884   -0.682579   -2.512009
     17          7           0       -1.123687   -1.993886   -1.164642
     18          6           0       -0.519441   -1.285710   -2.145982
     19          6           0       -0.361772   -2.755869   -0.344966
     20          6           0        0.833716   -1.301260   -2.327096
     21          1           0       -1.168343   -0.681548   -2.766903
     22          6           0        0.997371   -2.819042   -0.461625
     23          1           0       -0.891814   -3.271532    0.448583
     24          6           0        1.661966   -2.011415   -1.414971
     25          1           0        1.259357   -0.718619   -3.133419
     26          1           0        1.540624   -3.405593    0.265964
     27          7           0        2.997703   -1.909795   -1.439625
     28          6           0        3.807834   -2.434070   -0.333694
     29          1           0        3.754044   -3.526244   -0.297614
     30          1           0        3.427785   -2.025261    0.613110
     31          6           0        3.682952   -0.813416   -2.140344
     32          1           0        3.934106   -1.117290   -3.164099
     33          1           0        3.037543    0.068468   -2.165133
     34          7           0       -1.293611   -0.295479    1.026197
     35         16           0       -1.253541   -1.257443    2.277692
     36          8           0       -2.233770   -2.364897    2.224126
     37          8           0        0.148042   -1.697708    2.518517
     38          6           0       -1.215930    2.837997   -0.176010
     39          6           0       -0.437916    2.205527   -1.150584
     40          6           0       -0.916705    2.087734   -2.454111
     41          6           0       -2.182581    2.564522   -2.793307
     42          6           0       -2.967400    3.178118   -1.818424
     43          6           0       -2.480943    3.315606   -0.520745
     44          1           0        0.517130    1.766417   -0.868034
     45          1           0       -0.297709    1.612770   -3.212036
     46          1           0       -2.555547    2.462247   -3.808169
     47          1           0       -3.958748    3.546463   -2.066196
     48          1           0       -3.096745    3.787763    0.242014
     49          8           0        0.180070    1.959293    1.607914
     50          1           0       -0.271286    1.100499    1.361969
     51          6           0        2.431836    0.667481    1.268545
     52          8           0        2.152337    0.220213    0.168847
     53          8           0        2.157685    0.051589    2.405209
     54          1           0        1.485940   -0.673784    2.270660
     55          6           0        3.184803    1.960359    1.477431
     56          1           0        2.725406    2.467227    2.330561
     57          1           0        4.214021    1.708375    1.771945
     58          6           0       -0.704350    2.979300    1.243828
     59          1           0       -1.568607    3.036571    1.926867
     60          1           0       -0.158902    3.927301    1.343205
     61          6           0       -1.653255   -0.263203    3.712126
     62          1           0       -0.964079    0.584892    3.717365
     63          1           0       -2.685219    0.079130    3.612546
     64          1           0       -1.531622   -0.871417    4.609490
     65          6           0        3.173948    2.847090    0.239434
     66          1           0        3.590455    2.294171   -0.611381
     67          1           0        2.131041    3.064208   -0.016531
     68          6           0        3.943640    4.146809    0.452778
     69          1           0        3.927192    4.771317   -0.445067
     70          1           0        3.508275    4.727372    1.272824
     71          1           0        4.991125    3.950078    0.706355
     72          6           0        5.210248   -1.917925   -0.643725
     73          1           0        5.826287   -1.847161    0.254887
     74          1           0        5.709869   -2.586452   -1.352540
     75          6           0        4.931249   -0.559297   -1.291132
     76          1           0        4.682103    0.174054   -0.518352
     77          1           0        5.767189   -0.178852   -1.881660
 ---------------------------------------------------------------------

 SCF Done:  E(RM062X) =  -1991.39045052     A.U. after   15 cycles

 The electronic state is 1-A.
 Alpha  occ. eigenvalues --  -90.10401 -19.63397 -19.60114 -19.59335 -19.58633
 Alpha  occ. eigenvalues --  -19.58380 -14.84819 -14.80537 -14.69441 -10.65448
 Alpha  occ. eigenvalues --  -10.63246 -10.62383 -10.61533 -10.59164 -10.59138
 Alpha  occ. eigenvalues --  -10.59021 -10.57814 -10.57413 -10.56858 -10.56650
 Alpha  occ. eigenvalues --  -10.56089 -10.55781 -10.55486 -10.54964 -10.54917
 Alpha  occ. eigenvalues --  -10.54855 -10.54570 -10.54534 -10.54484 -10.53799
 Alpha  occ. eigenvalues --  -10.53734 -10.53558 -10.53118 -10.52924 -10.52646
 Alpha  occ. eigenvalues --  -10.52496  -8.41367  -6.33605  -6.33512  -6.33432
 Alpha  occ. eigenvalues --   -1.19140  -1.17939  -1.12952  -1.10352  -1.09856
 Alpha  occ. eigenvalues --   -1.09181  -1.06206  -0.97565  -0.95244  -0.94834
 Alpha  occ. eigenvalues --   -0.92195  -0.89862  -0.88604  -0.87986  -0.85019
 Alpha  occ. eigenvalues --   -0.84967  -0.83650  -0.83507  -0.83302  -0.80224
 Alpha  occ. eigenvalues --   -0.79083  -0.76372  -0.75673  -0.74670  -0.70951
 Alpha  occ. eigenvalues --   -0.70197  -0.69038  -0.68747  -0.68371  -0.67983
 Alpha  occ. eigenvalues --   -0.65729  -0.64725  -0.63962  -0.63437  -0.61661
 Alpha  occ. eigenvalues --   -0.60284  -0.59411  -0.58944  -0.58374  -0.56177
 Alpha  occ. eigenvalues --   -0.55480  -0.55159  -0.55067  -0.54013  -0.53662
 Alpha  occ. eigenvalues --   -0.53434  -0.53086  -0.52330  -0.51984  -0.51732
 Alpha  occ. eigenvalues --   -0.51175  -0.51016  -0.50613  -0.50258  -0.49832
 Alpha  occ. eigenvalues --   -0.49630  -0.49426  -0.48855  -0.48373  -0.48016
 Alpha  occ. eigenvalues --   -0.47763  -0.47171  -0.46967  -0.46873  -0.45954
 Alpha  occ. eigenvalues --   -0.45881  -0.45256  -0.43971  -0.43652  -0.43423
 Alpha  occ. eigenvalues --   -0.42756  -0.42429  -0.42283  -0.41922  -0.41863
 Alpha  occ. eigenvalues --   -0.41162  -0.40819  -0.40604  -0.39928  -0.39518
 Alpha  occ. eigenvalues --   -0.39377  -0.39174  -0.38700  -0.38375  -0.37783
 Alpha  occ. eigenvalues --   -0.37383  -0.36285  -0.35937  -0.35388  -0.35107
 Alpha  occ. eigenvalues --   -0.34425  -0.33164  -0.32129  -0.31686  -0.31514
 Alpha  occ. eigenvalues --   -0.29827  -0.28880  -0.28326  -0.27560  -0.25457
 Alpha virt. eigenvalues --   -0.01022   0.00643   0.03345   0.03826   0.09091
 Alpha virt. eigenvalues --    0.10112   0.10958   0.11729   0.13009   0.13396
 Alpha virt. eigenvalues --    0.13794   0.14185   0.15238   0.15551   0.15731

 Mulliken charges:
               1
     1  C   -0.304005
     2  C   -0.304216
     3  C   -0.309837
     4  C   -0.073544
     5  C    0.061871
     6  C   -0.305369
     7  H    0.165764
     8  H    0.160895
     9  H    0.159216
    10  H    0.146807
    11  H    0.156628
    12  H    0.213236
    13  H    0.141372
    14  H    0.180100
    15  H    0.148377
    16  H    0.151499
    17  N   -0.424715
    18  C    0.100655
    19  C    0.084601
    20  C   -0.228130
    21  H    0.205832
    22  C   -0.227322
    23  H    0.264024
    24  C    0.428758
    25  H    0.188311
    26  H    0.206680
    27  N   -0.529738
    28  C   -0.156484
    29  H    0.178446
    30  H    0.198837
    31  C   -0.147455
    32  H    0.169484
    33  H    0.196664
    34  N   -0.754807
    35  S    1.248923
    36  O   -0.646994
    37  O   -0.671048
    38  C    0.048704
    39  C   -0.177067
    40  C   -0.187005
    41  C   -0.170215
    42  C   -0.162634
    43  C   -0.197091
    44  H    0.200602
    45  H    0.139885
    46  H    0.156480
    47  H    0.161740
    48  H    0.156047
    49  O   -0.709207
    50  H    0.479631
    51  C    0.641892
    52  O   -0.523947
    53  O   -0.643163
    54  H    0.485548
    55  C   -0.366492
    56  H    0.199408
    57  H    0.163863
    58  C   -0.069890
    59  H    0.129233
    60  H    0.162326
    61  C   -0.655144
    62  H    0.217774
    63  H    0.188272
    64  H    0.208311
    65  C   -0.286846
    66  H    0.142808
    67  H    0.169396
    68  C   -0.480537
    69  H    0.158193
    70  H    0.158821
    71  H    0.149339
    72  C   -0.337520
    73  H    0.183824
    74  H    0.170113
    75  C   -0.335550
    76  H    0.183352
    77  H    0.173430
 Sum of Mulliken charges =  -0.00000

 Dipole moment (field-independent basis, Debye):
    X=              1.5892    Y=             -0.4220    Z=             -6.4762  Tot=              6.6817
 Quadrupole moment (field-independent basis, Debye-Ang):
   XX=           -197.5615   YY=           -223.9426   ZZ=           -221.4344
   XY=            -12.2514   XZ=             -1.6392   YZ=             12.1988

 Normal termination of Gaussian 16 at Fri Feb  8 01:36:06 2019.
