 Gaussian 16, Revision A.03,
 Gaussian 16:  ES64L-G16RevA.03 25-Dec-2016

 ------------------------------------------
 #p M062X/6-31G* em=gd3 force int=ultrafine
 ------------------------------------------

 -----
 Title
 -----
 Symbolic Z-matrix:
 Charge =  0 Multiplicity = 1

                         Standard orientation:
 ---------------------------------------------------------------------
 Center     Atomic      Atomic             Coordinates (Angstroms)
 Number     Number       Type             X           Y           Z
 ---------------------------------------------------------------------
      1          6           0       -4.843777    0.532172   -0.521082
      2          6           0       -5.016380   -0.734764   -1.363973
      3          6           0       -3.674646   -1.183070   -1.956020
      4          6           0       -2.688448   -1.437989   -0.820566
      5          6           0       -2.486483   -0.156699    0.024183
      6          6           0       -3.822578    0.322695    0.599998
      7          1           0       -3.788261   -2.084699   -2.567222
      8          1           0       -5.424489   -1.540129   -0.739258
      9          1           0       -5.733522   -0.562353   -2.172521
     10          1           0       -4.499100    1.350400   -1.168236
     11          1           0       -5.806103    0.838814   -0.098876
     12          1           0       -3.080518   -2.226802   -0.170397
     13          1           0       -2.127375    0.619445   -0.664374
     14          1           0       -4.194478   -0.412482    1.322122
     15          1           0       -3.640712    1.262459    1.134216
     16          1           0       -3.303774   -0.379365   -2.606275
     17          7           0       -1.357224   -1.904677   -1.264629
     18          6           0       -0.672599   -1.230098   -2.225731
     19          6           0       -0.662763   -2.724071   -0.431791
     20          6           0        0.678430   -1.323994   -2.360925
     21          1           0       -1.260794   -0.585153   -2.865590
     22          6           0        0.689969   -2.858563   -0.495153
     23          1           0       -1.248351   -3.228329    0.329080
     24          6           0        1.439011   -2.072858   -1.413838
     25          1           0        1.165313   -0.759432   -3.145009
     26          1           0        1.173670   -3.483244    0.242408
     27          7           0        2.767070   -2.047797   -1.391123
     28          6           0        3.507485   -2.582660   -0.237765
     29          1           0        3.362290   -3.663417   -0.152434
     30          1           0        3.142294   -2.072942    0.664896
     31          6           0        3.539104   -0.997605   -2.077775
     32          1           0        3.792041   -1.325436   -3.093871
     33          1           0        2.950395   -0.078078   -2.103262
     34          7           0       -1.404016   -0.309983    0.979083
     35         16           0       -1.439294   -1.214905    2.332979
     36          8           0       -2.660175   -2.023234    2.288012
     37          8           0       -0.158629   -1.909244    2.474121
     38          6           0       -0.557755    2.698742   -0.059645
     39          6           0       -0.043526    2.076235   -1.204666
     40          6           0       -0.732353    2.159516   -2.414139
     41          6           0       -1.950754    2.833676   -2.498122
     42          6           0       -2.475481    3.439101   -1.357655
     43          6           0       -1.778216    3.373353   -0.151605
     44          1           0        0.872418    1.491610   -1.106919
     45          1           0       -0.311109    1.694299   -3.303311
     46          1           0       -2.483296    2.893603   -3.443210
     47          1           0       -3.425073    3.964752   -1.407586
     48          1           0       -2.192620    3.849753    0.734747
     49          8           0        0.619695    1.353460    1.634119
     50          1           0       -0.549942    0.287955    0.936736
     51          6           0        2.056661    0.724743    1.200988
     52          8           0        1.955290    0.180159    0.047825
     53          8           0        2.223883   -0.152329    2.284894
     54          1           0        1.553892   -0.849879    2.164217
     55          6           0        3.092442    1.846369    1.380167
     56          1           0        2.809931    2.492248    2.220562
     57          1           0        4.024633    1.350260    1.681063
     58          6           0        0.185240    2.630511    1.268964
     59          1           0       -0.501195    2.989843    2.052936
     60          1           0        1.020375    3.346750    1.252389
     61          6           0       -1.511246   -0.036824    3.664668
     62          1           0       -0.638492    0.610392    3.531071
     63          1           0       -2.444879    0.521924    3.583452
     64          1           0       -1.460091   -0.585073    4.606559
     65          6           0        3.350946    2.660180    0.114857
     66          1           0        3.707540    1.983766   -0.670308
     67          1           0        2.417501    3.084528   -0.273519
     68          6           0        4.361537    3.779773    0.351076
     69          1           0        4.564208    4.344196   -0.564361
     70          1           0        3.993577    4.484922    1.104893
     71          1           0        5.312600    3.377263    0.717213
     72          6           0        4.949848   -2.193827   -0.540518
     73          1           0        5.560414   -2.164139    0.363824
     74          1           0        5.397987   -2.907503   -1.241046
     75          6           0        4.776208   -0.822402   -1.194636
     76          1           0        4.531438   -0.085849   -0.424077
     77          1           0        5.649775   -0.489528   -1.759239
 ---------------------------------------------------------------------

 SCF Done:  E(RM062X) =  -1991.35542356     A.U. after   15 cycles

 The electronic state is 1-A.
 Alpha  occ. eigenvalues --  -90.14597 -19.62284 -19.61953 -19.58242 -19.57393
 Alpha  occ. eigenvalues --  -19.51172 -14.85176 -14.80095 -14.76157 -10.63183
 Alpha  occ. eigenvalues --  -10.62611 -10.62487 -10.62126 -10.61032 -10.59761
 Alpha  occ. eigenvalues --  -10.57853 -10.57770 -10.57761 -10.56985 -10.56913
 Alpha  occ. eigenvalues --  -10.56838 -10.56348 -10.55829 -10.55087 -10.55033
 Alpha  occ. eigenvalues --  -10.55010 -10.54864 -10.54753 -10.54646 -10.54644
 Alpha  occ. eigenvalues --  -10.54378 -10.54135 -10.53105 -10.51138 -10.51041
 Alpha  occ. eigenvalues --  -10.49727  -8.45575  -6.37801  -6.37749  -6.37628
 Alpha  occ. eigenvalues --   -1.22402  -1.13440  -1.12784  -1.10600  -1.08927
 Alpha  occ. eigenvalues --   -1.05967  -1.02233  -1.00675  -0.95796  -0.95166
 Alpha  occ. eigenvalues --   -0.93473  -0.90117  -0.88588  -0.86454  -0.85467
 Alpha  occ. eigenvalues --   -0.84831  -0.84806  -0.83796  -0.83287  -0.82984
 Alpha  occ. eigenvalues --   -0.76572  -0.76109  -0.75576  -0.74015  -0.73175
 Alpha  occ. eigenvalues --   -0.71727  -0.68217  -0.68106  -0.67769  -0.67463
 Alpha  occ. eigenvalues --   -0.66398  -0.65449  -0.64861  -0.63335  -0.60507
 Alpha  occ. eigenvalues --   -0.60348  -0.59936  -0.59369  -0.57942  -0.57676
 Alpha  occ. eigenvalues --   -0.57171  -0.56358  -0.55600  -0.54994  -0.54346
 Alpha  occ. eigenvalues --   -0.53530  -0.52996  -0.52615  -0.52379  -0.52089
 Alpha  occ. eigenvalues --   -0.51636  -0.50872  -0.50152  -0.49962  -0.49416
 Alpha  occ. eigenvalues --   -0.49214  -0.48887  -0.48509  -0.48188  -0.48049
 Alpha  occ. eigenvalues --   -0.47701  -0.47619  -0.47126  -0.46315  -0.45887
 Alpha  occ. eigenvalues --   -0.45366  -0.45174  -0.44386  -0.44144  -0.43183
 Alpha  occ. eigenvalues --   -0.42468  -0.42321  -0.41219  -0.40942  -0.40769
 Alpha  occ. eigenvalues --   -0.40612  -0.40415  -0.40155  -0.39887  -0.39450
 Alpha  occ. eigenvalues --   -0.39050  -0.38994  -0.38715  -0.38244  -0.37694
 Alpha  occ. eigenvalues --   -0.37487  -0.36561  -0.36432  -0.35972  -0.35035
 Alpha  occ. eigenvalues --   -0.34608  -0.34300  -0.32009  -0.31145  -0.29965
 Alpha  occ. eigenvalues --   -0.29164  -0.28752  -0.27820  -0.24697  -0.24265
 Alpha virt. eigenvalues --   -0.01249   0.00571   0.03239   0.03653   0.10193
 Alpha virt. eigenvalues --    0.10623   0.11390   0.12532   0.13182   0.13330
 Alpha virt. eigenvalues --    0.14184   0.14394   0.15095   0.15529   0.15544

 Mulliken charges:
               1
     1  C   -0.306639
     2  C   -0.307768
     3  C   -0.311629
     4  C   -0.061069
     5  C    0.066044
     6  C   -0.306871
     7  H    0.175151
     8  H    0.163190
     9  H    0.166623
    10  H    0.152080
    11  H    0.164663
    12  H    0.208052
    13  H    0.173859
    14  H    0.191510
    15  H    0.160103
    16  H    0.156750
    17  N   -0.436978
    18  C    0.081992
    19  C    0.082692
    20  C   -0.212279
    21  H    0.202998
    22  C   -0.222373
    23  H    0.244621
    24  C    0.448357
    25  H    0.192122
    26  H    0.209617
    27  N   -0.519010
    28  C   -0.163338
    29  H    0.167819
    30  H    0.218866
    31  C   -0.145275
    32  H    0.160928
    33  H    0.205352
    34  N   -0.814690
    35  S    1.237160
    36  O   -0.604970
    37  O   -0.592988
    38  C    0.049597
    39  C   -0.198308
    40  C   -0.192782
    41  C   -0.172704
    42  C   -0.164969
    43  C   -0.205483
    44  H    0.235401
    45  H    0.140692
    46  H    0.156095
    47  H    0.159768
    48  H    0.154447
    49  O   -0.612116
    50  H    0.452791
    51  C    0.711957
    52  O   -0.675809
    53  O   -0.697543
    54  H    0.434396
    55  C   -0.338847
    56  H    0.146003
    57  H    0.150945
    58  C   -0.075661
    59  H    0.127643
    60  H    0.154403
    61  C   -0.666687
    62  H    0.265237
    63  H    0.200270
    64  H    0.223147
    65  C   -0.285525
    66  H    0.143442
    67  H    0.141614
    68  C   -0.475379
    69  H    0.148769
    70  H    0.149225
    71  H    0.148830
    72  C   -0.334496
    73  H    0.184240
    74  H    0.160610
    75  C   -0.338524
    76  H    0.205562
    77  H    0.165076
 Sum of Mulliken charges =  -0.00000

 Dipole moment (field-independent basis, Debye):
    X=             -3.3385    Y=             -1.4824    Z=             -5.7566  Tot=              6.8177
 Quadrupole moment (field-independent basis, Debye-Ang):
   XX=           -207.8054   YY=           -223.0928   ZZ=           -218.0657
   XY=            -13.6529   XZ=             -4.3653   YZ=             10.7860

 Normal termination of Gaussian 16 at Thu Feb  7 08:56:35 2019.
