 Gaussian 16, Revision A.03,
 Gaussian 16:  ES64L-G16RevA.03 25-Dec-2016

 ------------------------------------------
 #p M062X/6-31G* em=gd3 force int=ultrafine
 ------------------------------------------

 -----
 Title
 -----
 Symbolic Z-matrix:
 Charge =  0 Multiplicity = 1

                         Standard orientation:
 ---------------------------------------------------------------------
 Center     Atomic      Atomic             Coordinates (Angstroms)
 Number     Number       Type             X           Y           Z
 ---------------------------------------------------------------------
      1          6           0       -4.844652    0.402824   -0.509536
      2          6           0       -4.983637   -0.869493   -1.350518
      3          6           0       -3.629041   -1.280992   -1.939632
      4          6           0       -2.638019   -1.500188   -0.800605
      5          6           0       -2.458622   -0.210639    0.042713
      6          6           0       -3.815555    0.226178    0.611883
      7          1           0       -3.717184   -2.188705   -2.546898
      8          1           0       -5.370471   -1.685223   -0.725628
      9          1           0       -5.704200   -0.718567   -2.160850
     10          1           0       -4.524743    1.228244   -1.160493
     11          1           0       -5.816073    0.683399   -0.089198
     12          1           0       -3.007350   -2.297151   -0.147519
     13          1           0       -2.139481    0.570824   -0.661205
     14          1           0       -4.165571   -0.518669    1.335722
     15          1           0       -3.666820    1.173248    1.143691
     16          1           0       -3.283198   -0.469412   -2.594100
     17          7           0       -1.294303   -1.936671   -1.246358
     18          6           0       -0.632360   -1.253381   -2.211983
     19          6           0       -0.582319   -2.735266   -0.413415
     20          6           0        0.721765   -1.324498   -2.358149
     21          1           0       -1.236393   -0.618261   -2.846955
     22          6           0        0.774676   -2.849620   -0.490011
     23          1           0       -1.152778   -3.241890    0.357445
     24          6           0        1.499484   -2.062286   -1.420764
     25          1           0        1.190811   -0.751496   -3.147114
     26          1           0        1.273121   -3.458331    0.251244
     27          7           0        2.834344   -2.005731   -1.402043
     28          6           0        3.584861   -2.516601   -0.245802
     29          1           0        3.476982   -3.601281   -0.161156
     30          1           0        3.198366   -2.036583    0.664292
     31          6           0        3.577778   -0.934902   -2.088522
     32          1           0        3.845898   -1.255488   -3.102169
     33          1           0        2.964885   -0.031211   -2.131637
     34          7           0       -1.349520   -0.324174    0.972688
     35         16           0       -1.391799   -1.224361    2.310959
     36          8           0       -2.555669   -2.122889    2.280931
     37          8           0       -0.069150   -1.854734    2.488479
     38          6           0       -0.713291    2.762590   -0.066013
     39          6           0       -0.146338    2.117419   -1.174769
     40          6           0       -0.798000    2.147279   -2.406166
     41          6           0       -2.037211    2.777219   -2.540308
     42          6           0       -2.615106    3.393561   -1.433013
     43          6           0       -1.948843    3.387738   -0.210063
     44          1           0        0.782320    1.562117   -1.049195
     45          1           0       -0.340386    1.672192   -3.272428
     46          1           0       -2.546725    2.792690   -3.499130
     47          1           0       -3.582404    3.879539   -1.515911
     48          1           0       -2.394754    3.861254    0.661516
     49          8           0        0.327079    1.422728    1.627783
     50          1           0       -0.537485    0.527873    1.128034
     51          6           0        2.311996    0.607851    1.173134
     52          8           0        2.067123    0.153681    0.064340
     53          8           0        2.242158   -0.134927    2.288995
     54          1           0        1.532363   -0.806260    2.177337
     55          6           0        3.094526    1.884525    1.389790
     56          1           0        2.640231    2.463980    2.200332
     57          1           0        4.076258    1.555507    1.758759
     58          6           0       -0.043967    2.702555    1.295553
     59          1           0       -0.740341    3.136813    2.038450
     60          1           0        0.828265    3.389974    1.285862
     61          6           0       -1.535685   -0.060892    3.656060
     62          1           0       -0.709025    0.642584    3.510880
     63          1           0       -2.499490    0.444819    3.576423
     64          1           0       -1.450796   -0.602850    4.599008
     65          6           0        3.279832    2.723107    0.127732
     66          1           0        3.664995    2.081831   -0.673708
     67          1           0        2.312643    3.094817   -0.228771
     68          6           0        4.230497    3.895683    0.361012
     69          1           0        4.395542    4.468619   -0.556334
     70          1           0        3.832899    4.581723    1.116627
     71          1           0        5.205096    3.543013    0.716398
     72          6           0        5.016072   -2.077031   -0.534473
     73          1           0        5.616758   -2.021196    0.375358
     74          1           0        5.494499   -2.779037   -1.225462
     75          6           0        4.808470   -0.717276   -1.203792
     76          1           0        4.558320    0.027475   -0.443015
     77          1           0        5.674349   -0.368771   -1.770147
 ---------------------------------------------------------------------

 SCF Done:  E(RM062X) =  -1991.36165073     A.U. after   15 cycles

 The electronic state is 1-A.
 Alpha  occ. eigenvalues --  -90.12509 -19.62272 -19.60505 -19.60306 -19.58281
 Alpha  occ. eigenvalues --  -19.53640 -14.85249 -14.80590 -14.72692 -10.65074
 Alpha  occ. eigenvalues --  -10.63517 -10.62772 -10.62188 -10.60259 -10.58887
 Alpha  occ. eigenvalues --  -10.58781 -10.58252 -10.58064 -10.57198 -10.56244
 Alpha  occ. eigenvalues --  -10.55752 -10.55394 -10.55176 -10.54954 -10.54618
 Alpha  occ. eigenvalues --  -10.54509 -10.54439 -10.54356 -10.54214 -10.53674
 Alpha  occ. eigenvalues --  -10.53548 -10.53340 -10.53031 -10.52666 -10.52502
 Alpha  occ. eigenvalues --  -10.52266  -8.43508  -6.35731  -6.35664  -6.35571
 Alpha  occ. eigenvalues --   -1.20224  -1.17622  -1.13440  -1.09548  -1.08581
 Alpha  occ. eigenvalues --   -1.08016  -1.03959  -0.99490  -0.95432  -0.94500
 Alpha  occ. eigenvalues --   -0.93110  -0.90237  -0.88823  -0.87487  -0.84964
 Alpha  occ. eigenvalues --   -0.84720  -0.84235  -0.83703  -0.82786  -0.81489
 Alpha  occ. eigenvalues --   -0.78485  -0.76681  -0.75887  -0.71966  -0.71920
 Alpha  occ. eigenvalues --   -0.71155  -0.68678  -0.68553  -0.68362  -0.67342
 Alpha  occ. eigenvalues --   -0.65922  -0.64562  -0.64224  -0.63109  -0.62215
 Alpha  occ. eigenvalues --   -0.60459  -0.60048  -0.58424  -0.58155  -0.56860
 Alpha  occ. eigenvalues --   -0.56294  -0.56124  -0.54879  -0.54189  -0.53855
 Alpha  occ. eigenvalues --   -0.53395  -0.53007  -0.52991  -0.51925  -0.51534
 Alpha  occ. eigenvalues --   -0.51519  -0.50854  -0.50742  -0.50451  -0.50099
 Alpha  occ. eigenvalues --   -0.49824  -0.48838  -0.48461  -0.48431  -0.47325
 Alpha  occ. eigenvalues --   -0.47276  -0.47183  -0.46743  -0.46372  -0.45980
 Alpha  occ. eigenvalues --   -0.45829  -0.44955  -0.44646  -0.43616  -0.43265
 Alpha  occ. eigenvalues --   -0.42927  -0.42235  -0.41999  -0.41898  -0.41565
 Alpha  occ. eigenvalues --   -0.40905  -0.40841  -0.40189  -0.39922  -0.39574
 Alpha  occ. eigenvalues --   -0.39360  -0.38918  -0.38558  -0.38385  -0.37993
 Alpha  occ. eigenvalues --   -0.37349  -0.37123  -0.36841  -0.36128  -0.34891
 Alpha  occ. eigenvalues --   -0.34359  -0.33992  -0.33216  -0.30549  -0.29473
 Alpha  occ. eigenvalues --   -0.28959  -0.28730  -0.27953  -0.25863  -0.24937
 Alpha virt. eigenvalues --   -0.01459   0.00345   0.03752   0.04484   0.10187
 Alpha virt. eigenvalues --    0.10676   0.11371   0.11481   0.12413   0.13415
 Alpha virt. eigenvalues --    0.13802   0.14186   0.15140   0.15400   0.15452

 Mulliken charges:
               1
     1  C   -0.306264
     2  C   -0.306128
     3  C   -0.311179
     4  C   -0.066060
     5  C    0.073604
     6  C   -0.306861
     7  H    0.170545
     8  H    0.161983
     9  H    0.163224
    10  H    0.150757
    11  H    0.161125
    12  H    0.208986
    13  H    0.162519
    14  H    0.186745
    15  H    0.159163
    16  H    0.155079
    17  N   -0.429494
    18  C    0.093186
    19  C    0.093366
    20  C   -0.221885
    21  H    0.207028
    22  C   -0.226833
    23  H    0.252144
    24  C    0.430257
    25  H    0.191514
    26  H    0.208788
    27  N   -0.521708
    28  C   -0.160428
    29  H    0.175601
    30  H    0.202226
    31  C   -0.146934
    32  H    0.168501
    33  H    0.199121
    34  N   -0.820611
    35  S    1.247475
    36  O   -0.617825
    37  O   -0.633635
    38  C    0.058294
    39  C   -0.190835
    40  C   -0.189977
    41  C   -0.175323
    42  C   -0.161479
    43  C   -0.205158
    44  H    0.206788
    45  H    0.134694
    46  H    0.152710
    47  H    0.157322
    48  H    0.154662
    49  O   -0.715535
    50  H    0.469281
    51  C    0.684843
    52  O   -0.545307
    53  O   -0.651715
    54  H    0.468725
    55  C   -0.362914
    56  H    0.193253
    57  H    0.159962
    58  C   -0.033933
    59  H    0.095441
    60  H    0.111329
    61  C   -0.671859
    62  H    0.262266
    63  H    0.193732
    64  H    0.212414
    65  C   -0.291821
    66  H    0.142598
    67  H    0.165262
    68  C   -0.479373
    69  H    0.156822
    70  H    0.158463
    71  H    0.149452
    72  C   -0.334762
    73  H    0.184788
    74  H    0.167456
    75  C   -0.335878
    76  H    0.186371
    77  H    0.171849
 Sum of Mulliken charges =  -0.00000

 Dipole moment (field-independent basis, Debye):
    X=              0.2539    Y=             -1.7179    Z=             -6.3093  Tot=              6.5439
 Quadrupole moment (field-independent basis, Debye-Ang):
   XX=           -200.7163   YY=           -225.4550   ZZ=           -220.5738
   XY=            -11.2172   XZ=             -1.0300   YZ=             11.1421

 Normal termination of Gaussian 16 at Thu Feb  7 19:42:36 2019.
