 Gaussian 16, Revision A.03,
 Gaussian 16:  ES64L-G16RevA.03 25-Dec-2016

 ------------------------------------------
 #p M062X/6-31G* em=gd3 force int=ultrafine
 ------------------------------------------

 -----
 Title
 -----
 Symbolic Z-matrix:
 Charge =  0 Multiplicity = 1

                         Standard orientation:
 ---------------------------------------------------------------------
 Center     Atomic      Atomic             Coordinates (Angstroms)
 Number     Number       Type             X           Y           Z
 ---------------------------------------------------------------------
      1          6           0       -4.846219    0.475612   -0.538284
      2          6           0       -5.034030   -0.839906   -1.300087
      3          6           0       -3.704674   -1.321757   -1.893108
      4          6           0       -2.694425   -1.496377   -0.764278
      5          6           0       -2.469640   -0.158720   -0.016937
      6          6           0       -3.793912    0.343603    0.567438
      7          1           0       -3.827524   -2.263046   -2.439280
      8          1           0       -5.426089   -1.607544   -0.620039
      9          1           0       -5.769645   -0.716950   -2.101149
     10          1           0       -4.528456    1.255929   -1.242902
     11          1           0       -5.799453    0.799363   -0.108027
     12          1           0       -3.072434   -2.235609   -0.050869
     13          1           0       -2.145932    0.574393   -0.766774
     14          1           0       -4.143811   -0.349873    1.339235
     15          1           0       -3.610513    1.315025    1.039537
     16          1           0       -3.351370   -0.563553   -2.604886
     17          7           0       -1.372563   -1.992502   -1.200104
     18          6           0       -0.691795   -1.350402   -2.187251
     19          6           0       -0.675203   -2.773998   -0.333257
     20          6           0        0.660142   -1.435448   -2.311854
     21          1           0       -1.284760   -0.735347   -2.852413
     22          6           0        0.678591   -2.894977   -0.383975
     23          1           0       -1.259080   -3.244951    0.450025
     24          6           0        1.421311   -2.130374   -1.324549
     25          1           0        1.146109   -0.896399   -3.114022
     26          1           0        1.166885   -3.477578    0.384154
     27          7           0        2.746871   -2.072434   -1.284661
     28          6           0        3.488773   -2.542777   -0.104441
     29          1           0        3.352776   -3.619111    0.033556
     30          1           0        3.117738   -1.990310    0.771011
     31          6           0        3.497108   -1.030445   -2.003706
     32          1           0        3.746222   -1.378583   -3.013925
     33          1           0        2.888737   -0.123642   -2.048301
     34          7           0       -1.358325   -0.216736    0.920325
     35         16           0       -1.370908   -1.042313    2.332686
     36          8           0       -2.606509   -1.828480    2.371890
     37          8           0       -0.099379   -1.751627    2.481303
     38          6           0       -0.530586    2.642556   -0.089364
     39          6           0       -0.057225    2.073534   -1.281414
     40          6           0       -0.819482    2.135681   -2.447442
     41          6           0       -2.067794    2.757457   -2.455595
     42          6           0       -2.548896    3.323918   -1.277446
     43          6           0       -1.783086    3.264821   -0.112983
     44          1           0        0.885623    1.534418   -1.254050
     45          1           0       -0.427007    1.698888   -3.363835
     46          1           0       -2.654178    2.807709   -3.368962
     47          1           0       -3.517536    3.816100   -1.264366
     48          1           0       -2.167930    3.716368    0.799365
     49          8           0        0.744896    1.493481    1.771159
     50          1           0       -0.402892    0.041810    0.608091
     51          6           0        1.961370    0.797521    1.194435
     52          8           0        1.651188    0.189072    0.080290
     53          8           0        2.289874   -0.076887    2.260628
     54          1           0        1.585328   -0.749594    2.254605
     55          6           0        3.125773    1.817965    1.158511
     56          1           0        2.997000    2.531144    1.983171
     57          1           0        4.037601    1.255047    1.395430
     58          6           0        0.281054    2.689583    1.209215
     59          1           0       -0.374370    3.136903    1.969333
     60          1           0        1.109597    3.400397    1.071246
     61          6           0       -1.414233    0.201711    3.600940
     62          1           0       -0.523625    0.818143    3.447309
     63          1           0       -2.332596    0.779205    3.483356
     64          1           0       -1.394661   -0.310226    4.564587
     65          6           0        3.335306    2.558738   -0.159914
     66          1           0        3.558835    1.832344   -0.950326
     67          1           0        2.417862    3.063518   -0.482133
     68          6           0        4.463063    3.584251   -0.052908
     69          1           0        4.640687    4.098377   -1.002557
     70          1           0        4.224498    4.344330    0.699642
     71          1           0        5.400203    3.106009    0.253828
     72          6           0        4.927176   -2.157997   -0.429361
     73          1           0        5.541949   -2.086145    0.469589
     74          1           0        5.376367   -2.896433   -1.103024
     75          6           0        4.739980   -0.815192   -1.136970
     76          1           0        4.504667   -0.050635   -0.391371
     77          1           0        5.606596   -0.497169   -1.720405
 ---------------------------------------------------------------------

 SCF Done:  E(RM062X) =  -1991.35685469     A.U. after   15 cycles

 The electronic state is 1-A.
 Alpha  occ. eigenvalues --  -90.14629 -19.62200 -19.62107 -19.58513 -19.56610
 Alpha  occ. eigenvalues --  -19.50668 -14.85294 -14.80277 -14.76642 -10.63337
 Alpha  occ. eigenvalues --  -10.62762 -10.62253 -10.61970 -10.61000 -10.59729
 Alpha  occ. eigenvalues --  -10.58107 -10.57932 -10.57819 -10.57155 -10.56905
 Alpha  occ. eigenvalues --  -10.56859 -10.55944 -10.55830 -10.55017 -10.54925
 Alpha  occ. eigenvalues --  -10.54894 -10.54827 -10.54671 -10.54579 -10.54462
 Alpha  occ. eigenvalues --  -10.54454 -10.54380 -10.52961 -10.51206 -10.51148
 Alpha  occ. eigenvalues --  -10.49438  -8.45603  -6.37827  -6.37791  -6.37637
 Alpha  occ. eigenvalues --   -1.22426  -1.13628  -1.13123  -1.10673  -1.09166
 Alpha  occ. eigenvalues --   -1.05688  -1.02287  -0.99170  -0.95878  -0.95036
 Alpha  occ. eigenvalues --   -0.93566  -0.90301  -0.88723  -0.86295  -0.85431
 Alpha  occ. eigenvalues --   -0.84871  -0.84804  -0.83990  -0.83099  -0.82976
 Alpha  occ. eigenvalues --   -0.76692  -0.75983  -0.75742  -0.74235  -0.73116
 Alpha  occ. eigenvalues --   -0.71791  -0.68267  -0.68140  -0.67879  -0.67444
 Alpha  occ. eigenvalues --   -0.66575  -0.65402  -0.64805  -0.63501  -0.60501
 Alpha  occ. eigenvalues --   -0.60340  -0.59650  -0.59585  -0.57761  -0.57703
 Alpha  occ. eigenvalues --   -0.57293  -0.56493  -0.55827  -0.55131  -0.54283
 Alpha  occ. eigenvalues --   -0.53616  -0.52905  -0.52637  -0.52478  -0.51984
 Alpha  occ. eigenvalues --   -0.51625  -0.50890  -0.50394  -0.49932  -0.49376
 Alpha  occ. eigenvalues --   -0.49129  -0.48987  -0.48266  -0.48122  -0.47857
 Alpha  occ. eigenvalues --   -0.47780  -0.47566  -0.47089  -0.46249  -0.45982
 Alpha  occ. eigenvalues --   -0.45068  -0.44778  -0.44284  -0.43803  -0.43276
 Alpha  occ. eigenvalues --   -0.42593  -0.42206  -0.41183  -0.41127  -0.40955
 Alpha  occ. eigenvalues --   -0.40766  -0.40551  -0.39961  -0.39801  -0.39283
 Alpha  occ. eigenvalues --   -0.39203  -0.39058  -0.38407  -0.38240  -0.37816
 Alpha  occ. eigenvalues --   -0.37290  -0.36620  -0.36416  -0.36002  -0.34964
 Alpha  occ. eigenvalues --   -0.34433  -0.34147  -0.31843  -0.31214  -0.29831
 Alpha  occ. eigenvalues --   -0.28916  -0.28626  -0.27739  -0.24216  -0.23989
 Alpha virt. eigenvalues --   -0.01424   0.00398   0.03439   0.03696   0.10118
 Alpha virt. eigenvalues --    0.10705   0.11443   0.12420   0.13165   0.13290
 Alpha virt. eigenvalues --    0.14160   0.14359   0.14752   0.15353   0.15573

 Mulliken charges:
               1
     1  C   -0.306386
     2  C   -0.307559
     3  C   -0.310062
     4  C   -0.058850
     5  C    0.056030
     6  C   -0.309577
     7  H    0.175050
     8  H    0.163095
     9  H    0.166533
    10  H    0.150852
    11  H    0.164744
    12  H    0.207351
    13  H    0.175385
    14  H    0.194940
    15  H    0.163465
    16  H    0.155754
    17  N   -0.435091
    18  C    0.071341
    19  C    0.067842
    20  C   -0.203897
    21  H    0.205169
    22  C   -0.212361
    23  H    0.243572
    24  C    0.448287
    25  H    0.192522
    26  H    0.210931
    27  N   -0.522396
    28  C   -0.168673
    29  H    0.168245
    30  H    0.225786
    31  C   -0.150627
    32  H    0.162588
    33  H    0.206201
    34  N   -0.802542
    35  S    1.247295
    36  O   -0.605742
    37  O   -0.597936
    38  C    0.069746
    39  C   -0.192642
    40  C   -0.191218
    41  C   -0.172577
    42  C   -0.164833
    43  C   -0.208989
    44  H    0.223551
    45  H    0.140370
    46  H    0.155129
    47  H    0.158640
    48  H    0.152404
    49  O   -0.564956
    50  H    0.440120
    51  C    0.719440
    52  O   -0.714800
    53  O   -0.713588
    54  H    0.436682
    55  C   -0.338530
    56  H    0.145584
    57  H    0.150071
    58  C   -0.085252
    59  H    0.135727
    60  H    0.150705
    61  C   -0.664481
    62  H    0.276322
    63  H    0.198377
    64  H    0.219802
    65  C   -0.287923
    66  H    0.135688
    67  H    0.143283
    68  C   -0.473837
    69  H    0.148012
    70  H    0.151602
    71  H    0.147338
    72  C   -0.333169
    73  H    0.186106
    74  H    0.161304
    75  C   -0.340955
    76  H    0.201862
    77  H    0.168605
 Sum of Mulliken charges =  -0.00000

 Dipole moment (field-independent basis, Debye):
    X=             -3.2503    Y=             -2.1431    Z=             -6.0131  Tot=              7.1634
 Quadrupole moment (field-independent basis, Debye-Ang):
   XX=           -207.4046   YY=           -221.6454   ZZ=           -219.7615
   XY=            -12.9388   XZ=             -4.5392   YZ=             10.3594

 Normal termination of Gaussian 16 at Thu Feb  7 12:10:07 2019.
