 Gaussian 16, Revision A.03,
 Gaussian 16:  ES64L-G16RevA.03 25-Dec-2016

 ------------------------------------------
 #p M062X/6-31G* em=gd3 force int=ultrafine
 ------------------------------------------

 -----
 Title
 -----
 Symbolic Z-matrix:
 Charge =  0 Multiplicity = 1

                         Standard orientation:
 ---------------------------------------------------------------------
 Center     Atomic      Atomic             Coordinates (Angstroms)
 Number     Number       Type             X           Y           Z
 ---------------------------------------------------------------------
      1          6           0       -4.870226    0.132491   -0.438990
      2          6           0       -4.936080   -1.159189   -1.259514
      3          6           0       -3.561931   -1.504157   -1.846414
      4          6           0       -2.555789   -1.630974   -0.706982
      5          6           0       -2.437095   -0.301755    0.092655
      6          6           0       -3.818256    0.041691    0.670724
      7          1           0       -3.601204   -2.432138   -2.428425
      8          1           0       -5.272957   -1.985154   -0.619458
      9          1           0       -5.666692   -1.063994   -2.069615
     10          1           0       -4.607875    0.965242   -1.106756
     11          1           0       -5.854806    0.358708   -0.015996
     12          1           0       -2.877777   -2.421827   -0.023851
     13          1           0       -2.213215    0.469818   -0.659328
     14          1           0       -4.102255   -0.719707    1.408292
     15          1           0       -3.732266    1.001564    1.193964
     16          1           0       -3.268836   -0.692238   -2.526160
     17          7           0       -1.195652   -2.017454   -1.149609
     18          6           0       -0.576876   -1.347261   -2.148861
     19          6           0       -0.446641   -2.765583   -0.305474
     20          6           0        0.776939   -1.384626   -2.322133
     21          1           0       -1.214960   -0.755282   -2.792262
     22          6           0        0.912361   -2.847441   -0.411717
     23          1           0       -0.986429   -3.252620    0.499547
     24          6           0        1.592302   -2.073704   -1.381964
     25          1           0        1.213198   -0.831110   -3.143186
     26          1           0        1.443373   -3.416561    0.338338
     27          7           0        2.929294   -1.982316   -1.394940
     28          6           0        3.718517   -2.464117   -0.254198
     29          1           0        3.661212   -3.553741   -0.175888
     30          1           0        3.322814   -2.017877    0.668952
     31          6           0        3.629523   -0.913852   -2.123946
     32          1           0        3.891149   -1.253965   -3.133367
     33          1           0        2.989494   -0.029848   -2.187559
     34          7           0       -1.309220   -0.270908    0.999477
     35         16           0       -1.274587   -1.193460    2.280912
     36          8           0       -2.284272   -2.275543    2.274538
     37          8           0        0.120201   -1.658522    2.514051
     38          6           0       -1.040043    2.859108   -0.162038
     39          6           0       -0.355937    2.171963   -1.171441
     40          6           0       -0.920768    2.059259   -2.439875
     41          6           0       -2.183940    2.589129   -2.706464
     42          6           0       -2.880261    3.244072   -1.693411
     43          6           0       -2.304811    3.379518   -0.431986
     44          1           0        0.594700    1.692656   -0.943788
     45          1           0       -0.372498    1.548679   -3.228491
     46          1           0       -2.623684    2.492760   -3.694743
     47          1           0       -3.870416    3.648781   -1.881243
     48          1           0       -2.847771    3.887276    0.362054
     49          8           0        0.248616    1.872657    1.642884
     50          1           0       -0.288610    1.078780    1.347441
     51          6           0        2.441116    0.637099    1.198202
     52          8           0        2.104776    0.204027    0.109858
     53          8           0        2.236566   -0.003090    2.338400
     54          1           0        1.524141   -0.692146    2.232903
     55          6           0        3.191946    1.934990    1.384087
     56          1           0        2.694574    2.473471    2.196338
     57          1           0        4.205437    1.696549    1.735997
     58          6           0       -0.427767    3.017691    1.213766
     59          1           0       -1.216905    3.318876    1.922394
     60          1           0        0.307053    3.836539    1.194750
     61          6           0       -1.622132   -0.138700    3.685504
     62          1           0       -0.901629    0.682111    3.650737
     63          1           0       -2.641599    0.238916    3.585436
     64          1           0       -1.510919   -0.719626    4.602016
     65          6           0        3.236046    2.773207    0.112606
     66          1           0        3.661092    2.178494   -0.704990
     67          1           0        2.208718    3.006954   -0.188785
     68          6           0        4.033519    4.061142    0.293326
     69          1           0        4.068189    4.640669   -0.633751
     70          1           0        3.586878    4.693546    1.067753
     71          1           0        5.064860    3.847418    0.594564
     72          6           0        5.128358   -1.964413   -0.557318
     73          1           0        5.723889   -1.853838    0.351118
     74          1           0        5.642158   -2.664510   -1.223887
     75          6           0        4.869437   -0.634659   -1.269637
     76          1           0        4.620222    0.134902   -0.533715
     77          1           0        5.716425   -0.288239   -1.865337
 ---------------------------------------------------------------------

 SCF Done:  E(RM062X) =  -1991.38791320     A.U. after   15 cycles

 The electronic state is 1-A.
 Alpha  occ. eigenvalues --  -90.10322 -19.63400 -19.60104 -19.59141 -19.58518
 Alpha  occ. eigenvalues --  -19.58322 -14.84790 -14.80479 -14.69345 -10.65519
 Alpha  occ. eigenvalues --  -10.63216 -10.62407 -10.61503 -10.59123 -10.59085
 Alpha  occ. eigenvalues --  -10.59019 -10.57822 -10.57415 -10.56794 -10.56664
 Alpha  occ. eigenvalues --  -10.56009 -10.55734 -10.55546 -10.54990 -10.54930
 Alpha  occ. eigenvalues --  -10.54880 -10.54606 -10.54566 -10.54504 -10.53822
 Alpha  occ. eigenvalues --  -10.53616 -10.53569 -10.53238 -10.53187 -10.52682
 Alpha  occ. eigenvalues --  -10.52619  -8.41284  -6.33521  -6.33429  -6.33349
 Alpha  occ. eigenvalues --   -1.19149  -1.17835  -1.12928  -1.10255  -1.09875
 Alpha  occ. eigenvalues --   -1.09121  -1.06102  -0.97527  -0.95283  -0.94776
 Alpha  occ. eigenvalues --   -0.92184  -0.89840  -0.88569  -0.88151  -0.85034
 Alpha  occ. eigenvalues --   -0.84922  -0.83660  -0.83509  -0.83300  -0.80147
 Alpha  occ. eigenvalues --   -0.79217  -0.76336  -0.75641  -0.74683  -0.70935
 Alpha  occ. eigenvalues --   -0.70205  -0.69156  -0.68699  -0.68349  -0.68034
 Alpha  occ. eigenvalues --   -0.65865  -0.64731  -0.63930  -0.63439  -0.61603
 Alpha  occ. eigenvalues --   -0.60258  -0.59378  -0.59021  -0.58349  -0.56160
 Alpha  occ. eigenvalues --   -0.55470  -0.55186  -0.55085  -0.54161  -0.53730
 Alpha  occ. eigenvalues --   -0.53444  -0.53063  -0.52478  -0.51940  -0.51698
 Alpha  occ. eigenvalues --   -0.51112  -0.50976  -0.50611  -0.50105  -0.49831
 Alpha  occ. eigenvalues --   -0.49588  -0.49530  -0.48807  -0.48335  -0.47992
 Alpha  occ. eigenvalues --   -0.47809  -0.47181  -0.47013  -0.46980  -0.45904
 Alpha  occ. eigenvalues --   -0.45737  -0.45229  -0.43944  -0.43655  -0.43433
 Alpha  occ. eigenvalues --   -0.42790  -0.42584  -0.42210  -0.41993  -0.41882
 Alpha  occ. eigenvalues --   -0.41162  -0.40881  -0.40545  -0.39897  -0.39554
 Alpha  occ. eigenvalues --   -0.39360  -0.39240  -0.38859  -0.38390  -0.37939
 Alpha  occ. eigenvalues --   -0.37311  -0.36214  -0.35830  -0.35340  -0.35130
 Alpha  occ. eigenvalues --   -0.34352  -0.33074  -0.32041  -0.31677  -0.31495
 Alpha  occ. eigenvalues --   -0.29880  -0.28873  -0.28317  -0.27412  -0.25375
 Alpha virt. eigenvalues --   -0.01028   0.00662   0.03235   0.03769   0.09020
 Alpha virt. eigenvalues --    0.10167   0.10904   0.11815   0.12966   0.13538
 Alpha virt. eigenvalues --    0.13869   0.14280   0.15023   0.15481   0.15803

 Mulliken charges:
               1
     1  C   -0.303910
     2  C   -0.304185
     3  C   -0.309606
     4  C   -0.073155
     5  C    0.063625
     6  C   -0.305022
     7  H    0.166292
     8  H    0.160998
     9  H    0.159128
    10  H    0.145886
    11  H    0.156760
    12  H    0.212222
    13  H    0.141280
    14  H    0.179344
    15  H    0.149932
    16  H    0.150216
    17  N   -0.424080
    18  C    0.099281
    19  C    0.084233
    20  C   -0.227465
    21  H    0.204779
    22  C   -0.226514
    23  H    0.263759
    24  C    0.427833
    25  H    0.187984
    26  H    0.207315
    27  N   -0.528291
    28  C   -0.158077
    29  H    0.178340
    30  H    0.198980
    31  C   -0.146629
    32  H    0.169579
    33  H    0.195122
    34  N   -0.757420
    35  S    1.249336
    36  O   -0.645626
    37  O   -0.670132
    38  C    0.048756
    39  C   -0.176656
    40  C   -0.187492
    41  C   -0.169715
    42  C   -0.161626
    43  C   -0.198592
    44  H    0.204447
    45  H    0.139150
    46  H    0.156511
    47  H    0.161964
    48  H    0.157426
    49  O   -0.714107
    50  H    0.483031
    51  C    0.651832
    52  O   -0.522126
    53  O   -0.646381
    54  H    0.485527
    55  C   -0.369486
    56  H    0.201867
    57  H    0.164650
    58  C   -0.064982
    59  H    0.127693
    60  H    0.153420
    61  C   -0.658482
    62  H    0.221962
    63  H    0.187395
    64  H    0.207319
    65  C   -0.288017
    66  H    0.144532
    67  H    0.163826
    68  C   -0.480332
    69  H    0.158847
    70  H    0.158416
    71  H    0.150982
    72  C   -0.337121
    73  H    0.184338
    74  H    0.169967
    75  C   -0.335856
    76  H    0.181883
    77  H    0.173114
 Sum of Mulliken charges =  -0.00000

 Dipole moment (field-independent basis, Debye):
    X=              1.5435    Y=             -0.3108    Z=             -6.5881  Tot=              6.7737
 Quadrupole moment (field-independent basis, Debye-Ang):
   XX=           -198.6807   YY=           -222.6992   ZZ=           -222.2723
   XY=            -11.7949   XZ=             -0.6478   YZ=             12.5362

 Normal termination of Gaussian 16 at Thu Feb  7 23:37:56 2019.
