 Gaussian 16, Revision A.03,
 Gaussian 16:  ES64L-G16RevA.03 25-Dec-2016

 ------------------------------------------
 #p M062X/6-31G* em=gd3 force int=ultrafine
 ------------------------------------------

 -----
 Title
 -----
 Symbolic Z-matrix:
 Charge =  0 Multiplicity = 1

                         Standard orientation:
 ---------------------------------------------------------------------
 Center     Atomic      Atomic             Coordinates (Angstroms)
 Number     Number       Type             X           Y           Z
 ---------------------------------------------------------------------
      1          6           0       -4.822173    0.466812   -0.525591
      2          6           0       -5.021620   -0.847146   -1.287138
      3          6           0       -3.699835   -1.331662   -1.894984
      4          6           0       -2.680516   -1.510240   -0.775439
      5          6           0       -2.440884   -0.174362   -0.028132
      6          6           0       -3.758336    0.331907    0.568893
      7          1           0       -3.831093   -2.272308   -2.440336
      8          1           0       -5.407892   -1.614941   -0.603952
      9          1           0       -5.765821   -0.721203   -2.079775
     10          1           0       -4.511103    1.247070   -1.233003
     11          1           0       -5.769907    0.791948   -0.084272
     12          1           0       -3.055314   -2.247966   -0.059035
     13          1           0       -2.121300    0.558395   -0.780098
     14          1           0       -4.102996   -0.360986    1.343498
     15          1           0       -3.568103    1.302746    1.039237
     16          1           0       -3.351559   -0.574115   -2.609976
     17          7           0       -1.363085   -2.010090   -1.220659
     18          6           0       -0.683045   -1.356595   -2.200715
     19          6           0       -0.664192   -2.793429   -0.356706
     20          6           0        0.670119   -1.429920   -2.318937
     21          1           0       -1.277872   -0.740598   -2.863632
     22          6           0        0.690815   -2.903998   -0.401606
     23          1           0       -1.248109   -3.272123    0.421929
     24          6           0        1.430855   -2.123241   -1.330220
     25          1           0        1.156125   -0.881386   -3.114555
     26          1           0        1.180171   -3.487115    0.365458
     27          7           0        2.755362   -2.046855   -1.279067
     28          6           0        3.497881   -2.514170   -0.098519
     29          1           0        3.367539   -3.591276    0.038224
     30          1           0        3.122840   -1.965596    0.777860
     31          6           0        3.493769   -0.990704   -1.988298
     32          1           0        3.736176   -1.321631   -3.005791
     33          1           0        2.876976   -0.088546   -2.016302
     34          7           0       -1.320567   -0.242913    0.898140
     35         16           0       -1.346602   -1.064303    2.311112
     36          8           0       -2.576586   -1.860475    2.343627
     37          8           0       -0.072286   -1.766895    2.473787
     38          6           0       -0.545061    2.652779   -0.065343
     39          6           0       -0.071540    2.107046   -1.268761
     40          6           0       -0.841324    2.172154   -2.429210
     41          6           0       -2.099355    2.774471   -2.421791
     42          6           0       -2.581513    3.317296   -1.233463
     43          6           0       -1.807015    3.255323   -0.074765
     44          1           0        0.877776    1.581107   -1.258117
     45          1           0       -0.447409    1.753495   -3.353359
     46          1           0       -2.692151    2.827503   -3.330842
     47          1           0       -3.557663    3.793828   -1.207201
     48          1           0       -2.192784    3.689964    0.845382
     49          8           0        0.740657    1.527597    1.810296
     50          1           0       -0.355181   -0.009078    0.573087
     51          6           0        1.922632    0.807385    1.212021
     52          8           0        1.567615    0.193250    0.109505
     53          8           0        2.270664   -0.064423    2.272036
     54          1           0        1.572477   -0.743260    2.276880
     55          6           0        3.104379    1.806109    1.136301
     56          1           0        3.007873    2.522944    1.962038
     57          1           0        4.010825    1.227683    1.354975
     58          6           0        0.274803    2.712544    1.228280
     59          1           0       -0.374589    3.172303    1.985492
     60          1           0        1.104182    3.419540    1.074818
     61          6           0       -1.414292    0.178957    3.579342
     62          1           0       -0.525172    0.800595    3.440240
     63          1           0       -2.332779    0.753064    3.445949
     64          1           0       -1.409858   -0.333130    4.543044
     65          6           0        3.300080    2.543684   -0.185812
     66          1           0        3.493198    1.815810   -0.982937
     67          1           0        2.387929    3.069292   -0.487732
     68          6           0        4.450738    3.545509   -0.099702
     69          1           0        4.619076    4.058909   -1.051373
     70          1           0        4.242159    4.307531    0.659716
     71          1           0        5.384001    3.047486    0.186936
     72          6           0        4.934487   -2.123011   -0.424234
     73          1           0        5.550655   -2.050819    0.473699
     74          1           0        5.384704   -2.858810   -1.099967
     75          6           0        4.743582   -0.779244   -1.129727
     76          1           0        4.520042   -0.013634   -0.381916
     77          1           0        5.606442   -0.462798   -1.719465
 ---------------------------------------------------------------------

 SCF Done:  E(RM062X) =  -1991.35746600     A.U. after   14 cycles

 The electronic state is 1-A.
 Alpha  occ. eigenvalues --  -90.14446 -19.62024 -19.61969 -19.58519 -19.56636
 Alpha  occ. eigenvalues --  -19.50887 -14.85263 -14.80361 -14.76335 -10.63388
 Alpha  occ. eigenvalues --  -10.62784 -10.62261 -10.62057 -10.60895 -10.59585
 Alpha  occ. eigenvalues --  -10.58242 -10.57977 -10.57923 -10.57183 -10.56882
 Alpha  occ. eigenvalues --  -10.56792 -10.55761 -10.55760 -10.55010 -10.54931
 Alpha  occ. eigenvalues --  -10.54883 -10.54775 -10.54624 -10.54624 -10.54470
 Alpha  occ. eigenvalues --  -10.54424 -10.54349 -10.52994 -10.51320 -10.51281
 Alpha  occ. eigenvalues --  -10.49526  -8.45421  -6.37643  -6.37612  -6.37456
 Alpha  occ. eigenvalues --   -1.22253  -1.13629  -1.13276  -1.10503  -1.09263
 Alpha  occ. eigenvalues --   -1.05760  -1.02060  -0.99195  -0.95837  -0.95007
 Alpha  occ. eigenvalues --   -0.93553  -0.90323  -0.88754  -0.86126  -0.85575
 Alpha  occ. eigenvalues --   -0.84836  -0.84769  -0.84107  -0.83069  -0.82858
 Alpha  occ. eigenvalues --   -0.76699  -0.76101  -0.75794  -0.74253  -0.72979
 Alpha  occ. eigenvalues --   -0.71748  -0.68305  -0.68162  -0.67918  -0.67349
 Alpha  occ. eigenvalues --   -0.66659  -0.65316  -0.64837  -0.63527  -0.60511
 Alpha  occ. eigenvalues --   -0.60383  -0.59704  -0.59359  -0.57757  -0.57687
 Alpha  occ. eigenvalues --   -0.57267  -0.56476  -0.55820  -0.55145  -0.54247
 Alpha  occ. eigenvalues --   -0.53604  -0.52773  -0.52575  -0.52497  -0.51937
 Alpha  occ. eigenvalues --   -0.51582  -0.50941  -0.50526  -0.49923  -0.49436
 Alpha  occ. eigenvalues --   -0.49137  -0.48932  -0.48218  -0.48124  -0.47889
 Alpha  occ. eigenvalues --   -0.47757  -0.47528  -0.47011  -0.46331  -0.46060
 Alpha  occ. eigenvalues --   -0.44984  -0.44732  -0.44233  -0.43820  -0.43278
 Alpha  occ. eigenvalues --   -0.42586  -0.42180  -0.41282  -0.41204  -0.41003
 Alpha  occ. eigenvalues --   -0.40857  -0.40550  -0.39982  -0.39766  -0.39245
 Alpha  occ. eigenvalues --   -0.39209  -0.39101  -0.38400  -0.38125  -0.37723
 Alpha  occ. eigenvalues --   -0.37333  -0.36692  -0.36473  -0.35897  -0.34942
 Alpha  occ. eigenvalues --   -0.34414  -0.34081  -0.31745  -0.31215  -0.29793
 Alpha  occ. eigenvalues --   -0.28865  -0.28596  -0.27713  -0.24450  -0.24142
 Alpha virt. eigenvalues --   -0.01484   0.00379   0.03500   0.03722   0.10117
 Alpha virt. eigenvalues --    0.10815   0.11536   0.12329   0.13145   0.13379
 Alpha virt. eigenvalues --    0.14213   0.14390   0.14741   0.15279   0.15587

 Mulliken charges:
               1
     1  C   -0.306336
     2  C   -0.307388
     3  C   -0.309500
     4  C   -0.059567
     5  C    0.055504
     6  C   -0.310360
     7  H    0.174619
     8  H    0.163059
     9  H    0.166123
    10  H    0.150661
    11  H    0.164261
    12  H    0.208184
    13  H    0.174477
    14  H    0.194814
    15  H    0.163422
    16  H    0.155174
    17  N   -0.432926
    18  C    0.069152
    19  C    0.066045
    20  C   -0.202431
    21  H    0.205740
    22  C   -0.210733
    23  H    0.244023
    24  C    0.447130
    25  H    0.192446
    26  H    0.211186
    27  N   -0.524134
    28  C   -0.169198
    29  H    0.169084
    30  H    0.226458
    31  C   -0.152721
    32  H    0.163614
    33  H    0.206843
    34  N   -0.808590
    35  S    1.249493
    36  O   -0.608060
    37  O   -0.601654
    38  C    0.076531
    39  C   -0.189213
    40  C   -0.190724
    41  C   -0.172356
    42  C   -0.164275
    43  C   -0.210589
    44  H    0.219026
    45  H    0.140231
    46  H    0.154957
    47  H    0.158512
    48  H    0.152265
    49  O   -0.558216
    50  H    0.444312
    51  C    0.720462
    52  O   -0.717970
    53  O   -0.715777
    54  H    0.440198
    55  C   -0.338032
    56  H    0.147144
    57  H    0.150570
    58  C   -0.086968
    59  H    0.137234
    60  H    0.148812
    61  C   -0.664049
    62  H    0.276692
    63  H    0.197246
    64  H    0.218629
    65  C   -0.289611
    66  H    0.134018
    67  H    0.144856
    68  C   -0.473508
    69  H    0.148382
    70  H    0.152647
    71  H    0.146890
    72  C   -0.332666
    73  H    0.186441
    74  H    0.162125
    75  C   -0.341923
    76  H    0.199879
    77  H    0.169902
 Sum of Mulliken charges =  -0.00000

 Dipole moment (field-independent basis, Debye):
    X=             -2.9544    Y=             -2.1417    Z=             -6.1602  Tot=              7.1599
 Quadrupole moment (field-independent basis, Debye-Ang):
   XX=           -206.7081   YY=           -221.8489   ZZ=           -220.1223
   XY=            -12.7541   XZ=             -4.7481   YZ=             10.2437

 Normal termination of Gaussian 16 at Thu Feb  7 12:53:19 2019.
