 Gaussian 16, Revision A.03,
 Gaussian 16:  ES64L-G16RevA.03 25-Dec-2016

 ------------------------------------------
 #p M062X/6-31G* em=gd3 force int=ultrafine
 ------------------------------------------

 -----
 Title
 -----
 Symbolic Z-matrix:
 Charge =  0 Multiplicity = 1

                         Standard orientation:
 ---------------------------------------------------------------------
 Center     Atomic      Atomic             Coordinates (Angstroms)
 Number     Number       Type             X           Y           Z
 ---------------------------------------------------------------------
      1          6           0       -4.809377    0.463386   -0.520441
      2          6           0       -5.013525   -0.846845   -1.287104
      3          6           0       -3.694742   -1.330328   -1.902484
      4          6           0       -2.672306   -1.515480   -0.787044
      5          6           0       -2.426933   -0.183527   -0.033853
      6          6           0       -3.741766    0.322246    0.569558
      7          1           0       -3.829637   -2.268419   -2.451350
      8          1           0       -5.397766   -1.617271   -0.605728
      9          1           0       -5.760936   -0.716435   -2.075987
     10          1           0       -4.499860    1.246184   -1.225600
     11          1           0       -5.754954    0.788005   -0.074129
     12          1           0       -3.046334   -2.255603   -0.072833
     13          1           0       -2.108030    0.552155   -0.783246
     14          1           0       -4.084974   -0.373672    1.342125
     15          1           0       -3.548583    1.290720    1.043435
     16          1           0       -3.348032   -0.570224   -2.615530
     17          7           0       -1.356358   -2.015132   -1.237138
     18          6           0       -0.675986   -1.353604   -2.211553
     19          6           0       -0.657046   -2.801340   -0.376051
     20          6           0        0.677842   -1.420555   -2.325656
     21          1           0       -1.271340   -0.736062   -2.872652
     22          6           0        0.698589   -2.906171   -0.417098
     23          1           0       -1.241497   -3.286434    0.398259
     24          6           0        1.437898   -2.115228   -1.337349
     25          1           0        1.164277   -0.865421   -3.116414
     26          1           0        1.187931   -3.491642    0.348188
     27          7           0        2.761678   -2.029977   -1.279425
     28          6           0        3.503316   -2.496673   -0.098234
     29          1           0        3.375755   -3.574267    0.036972
     30          1           0        3.125260   -1.950636    0.778518
     31          6           0        3.495116   -0.966535   -1.982277
     32          1           0        3.734859   -1.288274   -3.003281
     33          1           0        2.874690   -0.066510   -2.001921
     34          7           0       -1.303823   -0.261337    0.888275
     35         16           0       -1.337215   -1.085966    2.298141
     36          8           0       -2.562369   -1.890271    2.321682
     37          8           0       -0.059967   -1.782169    2.467698
     38          6           0       -0.555249    2.660665   -0.045805
     39          6           0       -0.082030    2.127944   -1.255327
     40          6           0       -0.855073    2.197999   -2.413145
     41          6           0       -2.117020    2.791982   -2.397194
     42          6           0       -2.599477    3.321120   -1.203009
     43          6           0       -1.821048    3.254907   -0.047122
     44          1           0        0.869874    1.607412   -1.253071
     45          1           0       -0.460788    1.790037   -3.341846
     46          1           0       -2.712706    2.848776   -3.304119
     47          1           0       -3.578905    3.790416   -1.169744
     48          1           0       -2.206862    3.679937    0.877459
     49          8           0        0.735299    1.537743    1.830863
     50          1           0       -0.334659   -0.028628    0.563745
     51          6           0        1.903884    0.811279    1.221270
     52          8           0        1.532363    0.197364    0.121393
     53          8           0        2.262293   -0.062646    2.276631
     54          1           0        1.565231   -0.743357    2.285371
     55          6           0        3.092144    1.801865    1.132012
     56          1           0        3.008066    2.518543    1.958679
     57          1           0        3.995998    1.217167    1.342868
     58          6           0        0.269160    2.721230    1.245042
     59          1           0       -0.376597    3.184189    2.003225
     60          1           0        1.099247    3.426340    1.086813
     61          6           0       -1.422354    0.152374    3.570225
     62          1           0       -0.535770    0.779615    3.441142
     63          1           0       -2.342354    0.722426    3.429667
     64          1           0       -1.424785   -0.362520    4.532396
     65          6           0        3.282071    2.539443   -0.190734
     66          1           0        3.452887    1.810774   -0.992178
     67          1           0        2.375225    3.081202   -0.479285
     68          6           0        4.450090    3.521839   -0.117743
     69          1           0        4.612863    4.035807   -1.070064
     70          1           0        4.264722    4.284213    0.647164
     71          1           0        5.379034    3.007549    0.153670
     72          6           0        4.939401   -2.102068   -0.422325
     73          1           0        5.555034   -2.030068    0.475988
     74          1           0        5.391123   -2.836274   -1.098730
     75          6           0        4.747598   -0.757551   -1.126550
     76          1           0        4.528956    0.008542   -0.377872
     77          1           0        5.609290   -0.442148   -1.718540
 ---------------------------------------------------------------------

 SCF Done:  E(RM062X) =  -1991.35773440     A.U. after   14 cycles

 The electronic state is 1-A.
 Alpha  occ. eigenvalues --  -90.14365 -19.61950 -19.61908 -19.58567 -19.56662
 Alpha  occ. eigenvalues --  -19.51010 -14.85238 -14.80393 -14.76169 -10.63403
 Alpha  occ. eigenvalues --  -10.62786 -10.62254 -10.62120 -10.60844 -10.59518
 Alpha  occ. eigenvalues --  -10.58295 -10.57990 -10.57954 -10.57186 -10.56891
 Alpha  occ. eigenvalues --  -10.56760 -10.55729 -10.55698 -10.55052 -10.54890
 Alpha  occ. eigenvalues --  -10.54872 -10.54761 -10.54691 -10.54610 -10.54423
 Alpha  occ. eigenvalues --  -10.54421 -10.54345 -10.53015 -10.51372 -10.51335
 Alpha  occ. eigenvalues --  -10.49568  -8.45341  -6.37561  -6.37533  -6.37376
 Alpha  occ. eigenvalues --   -1.22178  -1.13616  -1.13322  -1.10430  -1.09297
 Alpha  occ. eigenvalues --   -1.05779  -1.01960  -0.99216  -0.95813  -0.95003
 Alpha  occ. eigenvalues --   -0.93540  -0.90323  -0.88761  -0.86056  -0.85643
 Alpha  occ. eigenvalues --   -0.84829  -0.84755  -0.84150  -0.83064  -0.82808
 Alpha  occ. eigenvalues --   -0.76693  -0.76156  -0.75809  -0.74279  -0.72918
 Alpha  occ. eigenvalues --   -0.71723  -0.68317  -0.68181  -0.67929  -0.67307
 Alpha  occ. eigenvalues --   -0.66690  -0.65283  -0.64850  -0.63532  -0.60518
 Alpha  occ. eigenvalues --   -0.60396  -0.59731  -0.59262  -0.57780  -0.57657
 Alpha  occ. eigenvalues --   -0.57241  -0.56465  -0.55813  -0.55149  -0.54229
 Alpha  occ. eigenvalues --   -0.53594  -0.52726  -0.52543  -0.52500  -0.51919
 Alpha  occ. eigenvalues --   -0.51568  -0.50964  -0.50581  -0.49913  -0.49465
 Alpha  occ. eigenvalues --   -0.49148  -0.48901  -0.48214  -0.48126  -0.47923
 Alpha  occ. eigenvalues --   -0.47733  -0.47508  -0.46976  -0.46368  -0.46083
 Alpha  occ. eigenvalues --   -0.44946  -0.44730  -0.44209  -0.43832  -0.43275
 Alpha  occ. eigenvalues --   -0.42572  -0.42176  -0.41323  -0.41238  -0.41033
 Alpha  occ. eigenvalues --   -0.40884  -0.40536  -0.39989  -0.39763  -0.39243
 Alpha  occ. eigenvalues --   -0.39224  -0.39099  -0.38408  -0.38078  -0.37681
 Alpha  occ. eigenvalues --   -0.37358  -0.36728  -0.36500  -0.35851  -0.34936
 Alpha  occ. eigenvalues --   -0.34408  -0.34052  -0.31704  -0.31198  -0.29787
 Alpha  occ. eigenvalues --   -0.28865  -0.28600  -0.27697  -0.24577  -0.24226
 Alpha virt. eigenvalues --   -0.01506   0.00381   0.03515   0.03728   0.10119
 Alpha virt. eigenvalues --    0.10867   0.11577   0.12294   0.13144   0.13418
 Alpha virt. eigenvalues --    0.14221   0.14436   0.14747   0.15251   0.15593

 Mulliken charges:
               1
     1  C   -0.306314
     2  C   -0.307318
     3  C   -0.309283
     4  C   -0.059938
     5  C    0.055650
     6  C   -0.310685
     7  H    0.174427
     8  H    0.163031
     9  H    0.165925
    10  H    0.150665
    11  H    0.164001
    12  H    0.208606
    13  H    0.174011
    14  H    0.194459
    15  H    0.163392
    16  H    0.154879
    17  N   -0.431991
    18  C    0.068298
    19  C    0.065450
    20  C   -0.201834
    21  H    0.205936
    22  C   -0.210247
    23  H    0.244279
    24  C    0.446618
    25  H    0.192373
    26  H    0.211288
    27  N   -0.524843
    28  C   -0.169582
    29  H    0.169397
    30  H    0.227019
    31  C   -0.153645
    32  H    0.164097
    33  H    0.207108
    34  N   -0.811251
    35  S    1.250569
    36  O   -0.609203
    37  O   -0.603156
    38  C    0.079161
    39  C   -0.187733
    40  C   -0.190470
    41  C   -0.172087
    42  C   -0.164069
    43  C   -0.211151
    44  H    0.217063
    45  H    0.140258
    46  H    0.154945
    47  H    0.158530
    48  H    0.152305
    49  O   -0.555695
    50  H    0.445945
    51  C    0.721119
    52  O   -0.719094
    53  O   -0.716774
    54  H    0.441592
    55  C   -0.337996
    56  H    0.147844
    57  H    0.151020
    58  C   -0.088139
    59  H    0.138078
    60  H    0.148392
    61  C   -0.663826
    62  H    0.276251
    63  H    0.196857
    64  H    0.218207
    65  C   -0.290412
    66  H    0.133668
    67  H    0.145411
    68  C   -0.473356
    69  H    0.148548
    70  H    0.153123
    71  H    0.146572
    72  C   -0.332362
    73  H    0.186575
    74  H    0.162440
    75  C   -0.342369
    76  H    0.199064
    77  H    0.170380
 Sum of Mulliken charges =  -0.00000

 Dipole moment (field-independent basis, Debye):
    X=             -2.8319    Y=             -2.0973    Z=             -6.2214  Tot=              7.1501
 Quadrupole moment (field-independent basis, Debye-Ang):
   XX=           -206.4235   YY=           -222.0318   ZZ=           -220.1835
   XY=            -12.6675   XZ=             -4.8905   YZ=             10.1922

 Normal termination of Gaussian 16 at Thu Feb  7 13:16:12 2019.
