 Gaussian 16, Revision A.03,
 Gaussian 16:  ES64L-G16RevA.03 25-Dec-2016

 ------------------------------------------
 #p M062X/6-31G* em=gd3 force int=ultrafine
 ------------------------------------------

 -----
 Title
 -----
 Symbolic Z-matrix:
 Charge =  0 Multiplicity = 1

                         Standard orientation:
 ---------------------------------------------------------------------
 Center     Atomic      Atomic             Coordinates (Angstroms)
 Number     Number       Type             X           Y           Z
 ---------------------------------------------------------------------
      1          6           0       -4.860111    0.488100   -0.550425
      2          6           0       -5.038423   -0.822314   -1.323011
      3          6           0       -3.702724   -1.297956   -1.906867
      4          6           0       -2.701566   -1.481042   -0.770950
      5          6           0       -2.490125   -0.150200   -0.008717
      6          6           0       -3.820349    0.346954    0.565354
      7          1           0       -3.819293   -2.234585   -2.462294
      8          1           0       -5.435795   -1.594921   -0.651745
      9          1           0       -5.766445   -0.695074   -2.130278
     10          1           0       -4.533335    1.273336   -1.245595
     11          1           0       -5.818013    0.809486   -0.129015
     12          1           0       -3.083412   -2.228837   -0.068393
     13          1           0       -2.156607    0.589902   -0.747411
     14          1           0       -4.177212   -0.352683    1.328488
     15          1           0       -3.640829    1.314328    1.047423
     16          1           0       -3.343869   -0.533127   -2.608667
     17          7           0       -1.375051   -1.969922   -1.201326
     18          6           0       -0.692000   -1.329372   -2.187915
     19          6           0       -0.679847   -2.755881   -0.336822
     20          6           0        0.659265   -1.421957   -2.315631
     21          1           0       -1.282456   -0.710776   -2.851835
     22          6           0        0.673183   -2.883989   -0.390307
     23          1           0       -1.264949   -3.228334    0.444574
     24          6           0        1.419476   -2.124926   -1.333121
     25          1           0        1.146378   -0.884306   -3.118097
     26          1           0        1.159221   -3.472849    0.374507
     27          7           0        2.745769   -2.081686   -1.299551
     28          6           0        3.485023   -2.560870   -0.120862
     29          1           0        3.344666   -3.637376    0.011893
     30          1           0        3.115366   -2.010673    0.756403
     31          6           0        3.506479   -1.046669   -2.018943
     32          1           0        3.760626   -1.401857   -3.025489
     33          1           0        2.905533   -0.135676   -2.070586
     34          7           0       -1.391267   -0.216604    0.940717
     35         16           0       -1.397955   -1.055283    2.344492
     36          8           0       -2.635070   -1.838712    2.375164
     37          8           0       -0.126651   -1.765928    2.484019
     38          6           0       -0.525218    2.646977   -0.090357
     39          6           0       -0.049826    2.063206   -1.273771
     40          6           0       -0.803218    2.129671   -2.445623
     41          6           0       -2.043926    2.766198   -2.464801
     42          6           0       -2.527198    3.344557   -1.292933
     43          6           0       -1.770067    3.283793   -0.123088
     44          1           0        0.887519    1.512773   -1.232888
     45          1           0       -0.410296    1.684506   -3.357789
     46          1           0       -2.623671    2.818573   -3.382277
     47          1           0       -3.490835    3.846622   -1.289530
     48          1           0       -2.155456    3.743343    0.785025
     49          8           0        0.733583    1.450412    1.732269
     50          1           0       -0.450134    0.109214    0.669499
     51          6           0        1.997311    0.782143    1.181919
     52          8           0        1.739322    0.188736    0.052875
     53          8           0        2.296079   -0.097787    2.251498
     54          1           0        1.589115   -0.767691    2.226112
     55          6           0        3.137185    1.827215    1.196546
     56          1           0        2.974677    2.530375    2.023771
     57          1           0        4.053280    1.278142    1.449584
     58          6           0        0.278635    2.667927    1.211620
     59          1           0       -0.378603    3.097970    1.980912
     60          1           0        1.110281    3.378715    1.095363
     61          6           0       -1.431216    0.180805    3.620867
     62          1           0       -0.541041    0.796923    3.462101
     63          1           0       -2.350282    0.759238    3.514898
     64          1           0       -1.401080   -0.334967    4.582181
     65          6           0        3.361077    2.577770   -0.114009
     66          1           0        3.603260    1.855107   -0.902115
     67          1           0        2.442129    3.072335   -0.449057
     68          6           0        4.475636    3.614841    0.013049
     69          1           0        4.660302    4.134466   -0.932290
     70          1           0        4.219865    4.369587    0.765303
     71          1           0        5.413633    3.144867    0.329609
     72          6           0        4.925567   -2.179296   -0.439820
     73          1           0        5.536706   -2.111403    0.461968
     74          1           0        5.375951   -2.917109   -1.113438
     75          6           0        4.744014   -0.834282   -1.144399
     76          1           0        4.501322   -0.072182   -0.398451
     77          1           0        5.614568   -0.515547   -1.721627
 ---------------------------------------------------------------------

 SCF Done:  E(RM062X) =  -1991.35628322     A.U. after   15 cycles

 The electronic state is 1-A.
 Alpha  occ. eigenvalues --  -90.14765 -19.62336 -19.62187 -19.58489 -19.56687
 Alpha  occ. eigenvalues --  -19.50525 -14.85287 -14.80185 -14.76791 -10.63275
 Alpha  occ. eigenvalues --  -10.62723 -10.62225 -10.61969 -10.61072 -10.59841
 Alpha  occ. eigenvalues --  -10.57964 -10.57876 -10.57722 -10.57103 -10.56919
 Alpha  occ. eigenvalues --  -10.56903 -10.56122 -10.55876 -10.55073 -10.54986
 Alpha  occ. eigenvalues --  -10.54895 -10.54785 -10.54737 -10.54656 -10.54523
 Alpha  occ. eigenvalues --  -10.54402 -10.54289 -10.52977 -10.51130 -10.51045
 Alpha  occ. eigenvalues --  -10.49423  -8.45735  -6.37961  -6.37920  -6.37772
 Alpha  occ. eigenvalues --   -1.22549  -1.13591  -1.12972  -1.10786  -1.09054
 Alpha  occ. eigenvalues --   -1.05695  -1.02466  -0.99301  -0.95894  -0.95087
 Alpha  occ. eigenvalues --   -0.93553  -0.90253  -0.88676  -0.86438  -0.85348
 Alpha  occ. eigenvalues --   -0.84897  -0.84835  -0.83870  -0.83156  -0.83061
 Alpha  occ. eigenvalues --   -0.76665  -0.75924  -0.75679  -0.74217  -0.73230
 Alpha  occ. eigenvalues --   -0.71809  -0.68236  -0.68159  -0.67823  -0.67510
 Alpha  occ. eigenvalues --   -0.66501  -0.65467  -0.64797  -0.63457  -0.60495
 Alpha  occ. eigenvalues --   -0.60309  -0.59859  -0.59533  -0.57836  -0.57685
 Alpha  occ. eigenvalues --   -0.57273  -0.56488  -0.55805  -0.55123  -0.54325
 Alpha  occ. eigenvalues --   -0.53611  -0.53022  -0.52680  -0.52461  -0.52032
 Alpha  occ. eigenvalues --   -0.51674  -0.50849  -0.50283  -0.49927  -0.49346
 Alpha  occ. eigenvalues --   -0.49165  -0.48995  -0.48349  -0.48127  -0.47911
 Alpha  occ. eigenvalues --   -0.47738  -0.47600  -0.47148  -0.46190  -0.45900
 Alpha  occ. eigenvalues --   -0.45144  -0.44895  -0.44326  -0.43837  -0.43264
 Alpha  occ. eigenvalues --   -0.42568  -0.42248  -0.41135  -0.41037  -0.40895
 Alpha  occ. eigenvalues --   -0.40694  -0.40504  -0.39976  -0.39845  -0.39339
 Alpha  occ. eigenvalues --   -0.39208  -0.38990  -0.38459  -0.38326  -0.37864
 Alpha  occ. eigenvalues --   -0.37291  -0.36555  -0.36406  -0.36072  -0.34979
 Alpha  occ. eigenvalues --   -0.34455  -0.34211  -0.31866  -0.31251  -0.29882
 Alpha  occ. eigenvalues --   -0.28986  -0.28700  -0.27755  -0.24062  -0.23923
 Alpha virt. eigenvalues --   -0.01356   0.00446   0.03355   0.03657   0.10125
 Alpha virt. eigenvalues --    0.10627   0.11364   0.12494   0.13181   0.13244
 Alpha virt. eigenvalues --    0.14113   0.14385   0.14827   0.15417   0.15562

 Mulliken charges:
               1
     1  C   -0.306406
     2  C   -0.307731
     3  C   -0.310553
     4  C   -0.058786
     5  C    0.058268
     6  C   -0.308582
     7  H    0.175393
     8  H    0.163155
     9  H    0.166801
    10  H    0.151035
    11  H    0.165030
    12  H    0.206863
    13  H    0.175836
    14  H    0.194438
    15  H    0.163105
    16  H    0.156115
    17  N   -0.436724
    18  C    0.073833
    19  C    0.071311
    20  C   -0.205542
    21  H    0.204482
    22  C   -0.215084
    23  H    0.243260
    24  C    0.449223
    25  H    0.192486
    26  H    0.210554
    27  N   -0.520695
    28  C   -0.167961
    29  H    0.167544
    30  H    0.224698
    31  C   -0.148640
    32  H    0.161591
    33  H    0.206004
    34  N   -0.799482
    35  S    1.244424
    36  O   -0.604051
    37  O   -0.594534
    38  C    0.062011
    39  C   -0.195389
    40  C   -0.191563
    41  C   -0.172576
    42  C   -0.165294
    43  C   -0.207189
    44  H    0.227708
    45  H    0.140820
    46  H    0.155427
    47  H    0.158945
    48  H    0.152878
    49  O   -0.575216
    50  H    0.439172
    51  C    0.718700
    52  O   -0.709580
    53  O   -0.710020
    54  H    0.433884
    55  C   -0.339651
    56  H    0.144549
    57  H    0.149975
    58  C   -0.083543
    59  H    0.134061
    60  H    0.152462
    61  C   -0.664779
    62  H    0.274451
    63  H    0.199353
    64  H    0.220892
    65  C   -0.286450
    66  H    0.138155
    67  H    0.141881
    68  C   -0.474151
    69  H    0.147855
    70  H    0.150697
    71  H    0.147597
    72  C   -0.333510
    73  H    0.185613
    74  H    0.160630
    75  C   -0.339990
    76  H    0.203276
    77  H    0.167234
 Sum of Mulliken charges =  -0.00000

 Dipole moment (field-independent basis, Debye):
    X=             -3.4675    Y=             -2.0263    Z=             -5.8845  Tot=              7.1244
 Quadrupole moment (field-independent basis, Debye-Ang):
   XX=           -207.9878   YY=           -221.7506   ZZ=           -219.2577
   XY=            -13.1022   XZ=             -4.3379   YZ=             10.4857

 Normal termination of Gaussian 16 at Thu Feb  7 11:31:48 2019.
