 Gaussian 16, Revision A.03,
 Gaussian 16:  ES64L-G16RevA.03 25-Dec-2016

 ------------------------------------------
 #p M062X/6-31G* em=gd3 force int=ultrafine
 ------------------------------------------

 -----
 Title
 -----
 Symbolic Z-matrix:
 Charge =  0 Multiplicity = 1

                         Standard orientation:
 ---------------------------------------------------------------------
 Center     Atomic      Atomic             Coordinates (Angstroms)
 Number     Number       Type             X           Y           Z
 ---------------------------------------------------------------------
      1          6           0       -4.865677    0.038515   -0.417078
      2          6           0       -4.889560   -1.238737   -1.262247
      3          6           0       -3.505186   -1.526276   -1.855652
      4          6           0       -2.500082   -1.651572   -0.715424
      5          6           0       -2.417762   -0.334814    0.107308
      6          6           0       -3.808295   -0.036729    0.688441
      7          1           0       -3.514661   -2.440125   -2.460738
      8          1           0       -5.197050   -2.087888   -0.637831
      9          1           0       -5.624395   -1.152546   -2.069393
     10          1           0       -4.635399    0.892684   -1.069303
     11          1           0       -5.855929    0.221325    0.013719
     12          1           0       -2.805954   -2.462447   -0.049192
     13          1           0       -2.211295    0.453736   -0.631312
     14          1           0       -4.069483   -0.815396    1.416368
     15          1           0       -3.748717    0.918344    1.224609
     16          1           0       -3.234912   -0.688435   -2.513271
     17          7           0       -1.130586   -1.998690   -1.160383
     18          6           0       -0.524780   -1.297129   -2.145542
     19          6           0       -0.370226   -2.757991   -0.336792
     20          6           0        0.828446   -1.315770   -2.325988
     21          1           0       -1.172611   -0.695900   -2.770399
     22          6           0        0.988875   -2.823606   -0.452283
     23          1           0       -0.901441   -3.269109    0.458915
     24          6           0        1.655236   -2.021320   -1.408876
     25          1           0        1.255273   -0.738418   -3.135484
     26          1           0        1.530741   -3.407260    0.278648
     27          7           0        2.991076   -1.920342   -1.431744
     28          6           0        3.798230   -2.436334   -0.319619
     29          1           0        3.745165   -3.528250   -0.276067
     30          1           0        3.414917   -2.021303    0.623142
     31          6           0        3.677809   -0.828368   -2.137928
     32          1           0        3.931330   -1.138865   -3.159079
     33          1           0        3.032296    0.053217   -2.169976
     34          7           0       -1.295773   -0.290011    1.023331
     35         16           0       -1.255718   -1.247034    2.278817
     36          8           0       -2.237503   -2.353665    2.230657
     37          8           0        0.145680   -1.687812    2.519954
     38          6           0       -1.195874    2.843642   -0.175767
     39          6           0       -0.431125    2.201023   -1.154198
     40          6           0       -0.922622    2.079924   -2.452467
     41          6           0       -2.188840    2.562575   -2.782173
     42          6           0       -2.961017    3.184917   -1.803060
     43          6           0       -2.461409    3.326239   -0.510790
     44          1           0        0.523750    1.757266   -0.878347
     45          1           0       -0.313408    1.597820   -3.213747
     46          1           0       -2.571858    2.457580   -3.792951
     47          1           0       -3.952705    3.557337   -2.043164
     48          1           0       -3.067209    3.805995    0.255282
     49          8           0        0.191016    1.953128    1.608885
     50          1           0       -0.274667    1.103124    1.359746
     51          6           0        2.433381    0.665208    1.257189
     52          8           0        2.145195    0.219206    0.159266
     53          8           0        2.169101    0.047294    2.395345
     54          1           0        1.491488   -0.673218    2.265237
     55          6           0        3.187568    1.958181    1.461470
     56          1           0        2.725395    2.469624    2.310480
     57          1           0        4.215577    1.707304    1.761057
     58          6           0       -0.668696    2.991364    1.237472
     59          1           0       -1.526017    3.082240    1.926838
     60          1           0       -0.097064    3.927657    1.319134
     61          6           0       -1.652292   -0.245790    3.709243
     62          1           0       -0.961742    0.600902    3.709149
     63          1           0       -2.683781    0.097620    3.609434
     64          1           0       -1.530097   -0.850104    4.609175
     65          6           0        3.180931    2.838554    0.218874
     66          1           0        3.600017    2.281300   -0.627841
     67          1           0        2.139103    3.054689   -0.042367
     68          6           0        3.950216    4.139290    0.427458
     69          1           0        3.938934    4.757550   -0.474776
     70          1           0        3.510954    4.725800    1.241165
     71          1           0        4.996230    3.943666    0.687857
     72          6           0        5.201353   -1.921493   -0.628631
     73          1           0        5.813839   -1.843088    0.271776
     74          1           0        5.704216   -2.595183   -1.330180
     75          6           0        4.924136   -0.568089   -1.287639
     76          1           0        4.673670    0.171491   -0.521345
     77          1           0        5.761624   -0.192588   -1.879131
 ---------------------------------------------------------------------

 SCF Done:  E(RM062X) =  -1991.39019852     A.U. after   15 cycles

 The electronic state is 1-A.
 Alpha  occ. eigenvalues --  -90.10394 -19.63388 -19.60104 -19.59327 -19.58621
 Alpha  occ. eigenvalues --  -19.58376 -14.84816 -14.80530 -14.69432 -10.65448
 Alpha  occ. eigenvalues --  -10.63243 -10.62387 -10.61525 -10.59158 -10.59123
 Alpha  occ. eigenvalues --  -10.59024 -10.57816 -10.57440 -10.56850 -10.56650
 Alpha  occ. eigenvalues --  -10.56079 -10.55775 -10.55491 -10.54962 -10.54914
 Alpha  occ. eigenvalues --  -10.54854 -10.54573 -10.54536 -10.54486 -10.53784
 Alpha  occ. eigenvalues --  -10.53737 -10.53557 -10.53125 -10.52951 -10.52640
 Alpha  occ. eigenvalues --  -10.52514  -8.41359  -6.33597  -6.33504  -6.33424
 Alpha  occ. eigenvalues --   -1.19131  -1.17922  -1.12948  -1.10357  -1.09852
 Alpha  occ. eigenvalues --   -1.09170  -1.06190  -0.97557  -0.95251  -0.94826
 Alpha  occ. eigenvalues --   -0.92192  -0.89860  -0.88599  -0.88000  -0.85017
 Alpha  occ. eigenvalues --   -0.84965  -0.83649  -0.83507  -0.83303  -0.80218
 Alpha  occ. eigenvalues --   -0.79092  -0.76368  -0.75669  -0.74660  -0.70948
 Alpha  occ. eigenvalues --   -0.70194  -0.69046  -0.68740  -0.68369  -0.67988
 Alpha  occ. eigenvalues --   -0.65741  -0.64725  -0.63958  -0.63432  -0.61653
 Alpha  occ. eigenvalues --   -0.60280  -0.59407  -0.58953  -0.58369  -0.56175
 Alpha  occ. eigenvalues --   -0.55471  -0.55157  -0.55064  -0.54029  -0.53663
 Alpha  occ. eigenvalues --   -0.53435  -0.53083  -0.52341  -0.51979  -0.51730
 Alpha  occ. eigenvalues --   -0.51167  -0.51010  -0.50612  -0.50237  -0.49831
 Alpha  occ. eigenvalues --   -0.49622  -0.49438  -0.48850  -0.48367  -0.48009
 Alpha  occ. eigenvalues --   -0.47760  -0.47171  -0.46969  -0.46891  -0.45951
 Alpha  occ. eigenvalues --   -0.45872  -0.45253  -0.43966  -0.43651  -0.43422
 Alpha  occ. eigenvalues --   -0.42757  -0.42433  -0.42273  -0.41917  -0.41879
 Alpha  occ. eigenvalues --   -0.41160  -0.40827  -0.40594  -0.39924  -0.39518
 Alpha  occ. eigenvalues --   -0.39374  -0.39180  -0.38713  -0.38376  -0.37799
 Alpha  occ. eigenvalues --   -0.37367  -0.36271  -0.35923  -0.35378  -0.35107
 Alpha  occ. eigenvalues --   -0.34418  -0.33152  -0.32118  -0.31699  -0.31508
 Alpha  occ. eigenvalues --   -0.29833  -0.28886  -0.28323  -0.27539  -0.25444
 Alpha virt. eigenvalues --   -0.01022   0.00644   0.03339   0.03816   0.09094
 Alpha virt. eigenvalues --    0.10122   0.10946   0.11748   0.13008   0.13414
 Alpha virt. eigenvalues --    0.13814   0.14199   0.15208   0.15533   0.15735

 Mulliken charges:
               1
     1  C   -0.303979
     2  C   -0.304209
     3  C   -0.309813
     4  C   -0.073474
     5  C    0.061954
     6  C   -0.305276
     7  H    0.165791
     8  H    0.160898
     9  H    0.159191
    10  H    0.146701
    11  H    0.156634
    12  H    0.213171
    13  H    0.141421
    14  H    0.179914
    15  H    0.148587
    16  H    0.151310
    17  N   -0.424667
    18  C    0.100554
    19  C    0.084406
    20  C   -0.228060
    21  H    0.205625
    22  C   -0.227322
    23  H    0.264159
    24  C    0.428676
    25  H    0.188292
    26  H    0.206727
    27  N   -0.529517
    28  C   -0.156773
    29  H    0.178436
    30  H    0.198950
    31  C   -0.147393
    32  H    0.169507
    33  H    0.196508
    34  N   -0.754904
    35  S    1.249156
    36  O   -0.647080
    37  O   -0.670915
    38  C    0.049008
    39  C   -0.177103
    40  C   -0.186996
    41  C   -0.170118
    42  C   -0.162482
    43  C   -0.197299
    44  H    0.201285
    45  H    0.139694
    46  H    0.156447
    47  H    0.161753
    48  H    0.156202
    49  O   -0.709568
    50  H    0.480128
    51  C    0.643260
    52  O   -0.523836
    53  O   -0.643618
    54  H    0.485568
    55  C   -0.366716
    56  H    0.199623
    57  H    0.163861
    58  C   -0.069724
    59  H    0.128868
    60  H    0.161153
    61  C   -0.655428
    62  H    0.218072
    63  H    0.188288
    64  H    0.208246
    65  C   -0.286885
    66  H    0.142962
    67  H    0.168668
    68  C   -0.480486
    69  H    0.158244
    70  H    0.158738
    71  H    0.149526
    72  C   -0.337482
    73  H    0.183902
    74  H    0.170097
    75  C   -0.335567
    76  H    0.183135
    77  H    0.173395
 Sum of Mulliken charges =  -0.00000

 Dipole moment (field-independent basis, Debye):
    X=              1.5778    Y=             -0.4196    Z=             -6.4829  Tot=              6.6853
 Quadrupole moment (field-independent basis, Debye-Ang):
   XX=           -197.6946   YY=           -223.7487   ZZ=           -221.5384
   XY=            -12.1980   XZ=             -1.5416   YZ=             12.2456

 Normal termination of Gaussian 16 at Fri Feb  8 01:19:45 2019.
