 Gaussian 16, Revision A.03,
 Gaussian 16:  ES64L-G16RevA.03 25-Dec-2016

 ------------------------------------------
 #p M062X/6-31G* em=gd3 force int=ultrafine
 ------------------------------------------

 -----
 Title
 -----
 Symbolic Z-matrix:
 Charge =  0 Multiplicity = 1

                         Standard orientation:
 ---------------------------------------------------------------------
 Center     Atomic      Atomic             Coordinates (Angstroms)
 Number     Number       Type             X           Y           Z
 ---------------------------------------------------------------------
      1          6           0       -4.798720    0.459763   -0.517031
      2          6           0       -5.005399   -0.845247   -1.291819
      3          6           0       -3.688265   -1.325736   -1.913283
      4          6           0       -2.664452   -1.519156   -0.800651
      5          6           0       -2.415777   -0.192249   -0.039039
      6          6           0       -3.729109    0.310828    0.569825
      7          1           0       -3.825334   -2.260149   -2.467887
      8          1           0       -5.388511   -1.619861   -0.614559
      9          1           0       -5.754572   -0.709141   -2.078044
     10          1           0       -4.489875    1.246755   -1.217689
     11          1           0       -5.743092    0.782388   -0.066730
     12          1           0       -3.038542   -2.263153   -0.090637
     13          1           0       -2.097088    0.547865   -0.784165
     14          1           0       -4.071407   -0.389923    1.338503
     15          1           0       -3.534218    1.276094    1.049433
     16          1           0       -3.342231   -0.561366   -2.622113
     17          7           0       -1.349158   -2.017316   -1.254530
     18          6           0       -0.668032   -1.348131   -2.223126
     19          6           0       -0.649869   -2.806903   -0.396394
     20          6           0        0.686391   -1.409656   -2.333178
     21          1           0       -1.263520   -0.728895   -2.882600
     22          6           0        0.706313   -2.906534   -0.433323
     23          1           0       -1.235232   -3.298725    0.373000
     24          6           0        1.445471   -2.106150   -1.345312
     25          1           0        1.173402   -0.848518   -3.119271
     26          1           0        1.195291   -3.494970    0.329922
     27          7           0        2.768518   -2.013615   -1.280778
     28          6           0        3.508402   -2.478879   -0.097945
     29          1           0        3.383928   -3.556921    0.036203
     30          1           0        3.126260   -1.934882    0.778347
     31          6           0        3.498327   -0.944711   -1.978482
     32          1           0        3.737471   -1.259958   -3.001590
     33          1           0        2.874373   -0.047028   -1.993513
     34          7           0       -1.291666   -0.278909    0.880663
     35         16           0       -1.330448   -1.109784    2.285414
     36          8           0       -2.549769   -1.923499    2.298506
     37          8           0       -0.049380   -1.797955    2.460711
     38          6           0       -0.566011    2.668884   -0.024358
     39          6           0       -0.093410    2.148707   -1.239642
     40          6           0       -0.869408    2.224994   -2.394924
     41          6           0       -2.134360    2.812451   -2.370606
     42          6           0       -2.616618    3.328399   -1.170741
     43          6           0       -1.834744    3.256498   -0.017501
     44          1           0        0.860540    1.632478   -1.245186
     45          1           0       -0.475404    1.827255   -3.328101
     46          1           0       -2.732638    2.874146   -3.275501
     47          1           0       -3.598549    3.791954   -1.130763
     48          1           0       -2.220168    3.672008    0.911579
     49          8           0        0.728809    1.541735    1.846685
     50          1           0       -0.318910   -0.043268    0.558215
     51          6           0        1.888272    0.814471    1.230178
     52          8           0        1.508071    0.201823    0.131183
     53          8           0        2.254365   -0.062127    2.280598
     54          1           0        1.559593   -0.745148    2.291415
     55          6           0        3.080273    1.800216    1.131628
     56          1           0        3.007412    2.517061    1.960204
     57          1           0        3.982523    1.209660    1.335036
     58          6           0        0.262601    2.726455    1.263693
     59          1           0       -0.379256    3.189944    2.024645
     60          1           0        1.093605    3.429775    1.103161
     61          6           0       -1.434028    0.121464    3.563107
     62          1           0       -0.551395    0.756049    3.443839
     63          1           0       -2.356856    0.685727    3.417668
     64          1           0       -1.440662   -0.397607    4.522993
     65          6           0        3.265880    2.537855   -0.191597
     66          1           0        3.410956    1.808465   -0.996737
     67          1           0        2.366694    3.098672   -0.466019
     68          6           0        4.455087    3.495433   -0.133983
     69          1           0        4.612218    4.009996   -1.086937
     70          1           0        4.299402    4.258239    0.637389
     71          1           0        5.377667    2.959984    0.118773
     72          6           0        4.944148   -2.080292   -0.418906
     73          1           0        5.557849   -2.007137    0.480641
     74          1           0        5.398892   -2.813319   -1.094503
     75          6           0        4.751636   -0.735892   -1.123589
     76          1           0        4.535389    0.031241   -0.375383
     77          1           0        5.612965   -0.421483   -1.716632
 ---------------------------------------------------------------------

 SCF Done:  E(RM062X) =  -1991.35796487     A.U. after   14 cycles

 The electronic state is 1-A.
 Alpha  occ. eigenvalues --  -90.14306 -19.61896 -19.61862 -19.58607 -19.56663
 Alpha  occ. eigenvalues --  -19.51081 -14.85217 -14.80414 -14.76042 -10.63413
 Alpha  occ. eigenvalues --  -10.62788 -10.62245 -10.62152 -10.60806 -10.59467
 Alpha  occ. eigenvalues --  -10.58333 -10.57999 -10.57967 -10.57186 -10.56899
 Alpha  occ. eigenvalues --  -10.56737 -10.55706 -10.55663 -10.55076 -10.54866
 Alpha  occ. eigenvalues --  -10.54858 -10.54753 -10.54734 -10.54602 -10.54420
 Alpha  occ. eigenvalues --  -10.54391 -10.54343 -10.53038 -10.51411 -10.51369
 Alpha  occ. eigenvalues --  -10.49610  -8.45283  -6.37502  -6.37475  -6.37318
 Alpha  occ. eigenvalues --   -1.22124  -1.13607  -1.13396  -1.10377  -1.09319
 Alpha  occ. eigenvalues --   -1.05816  -1.01891  -0.99242  -0.95794  -0.95005
 Alpha  occ. eigenvalues --   -0.93529  -0.90321  -0.88762  -0.86007  -0.85685
 Alpha  occ. eigenvalues --   -0.84832  -0.84745  -0.84177  -0.83066  -0.82772
 Alpha  occ. eigenvalues --   -0.76687  -0.76189  -0.75819  -0.74313  -0.72878
 Alpha  occ. eigenvalues --   -0.71704  -0.68324  -0.68196  -0.67937  -0.67276
 Alpha  occ. eigenvalues --   -0.66714  -0.65264  -0.64861  -0.63533  -0.60530
 Alpha  occ. eigenvalues --   -0.60402  -0.59754  -0.59187  -0.57794  -0.57638
 Alpha  occ. eigenvalues --   -0.57222  -0.56457  -0.55810  -0.55159  -0.54221
 Alpha  occ. eigenvalues --   -0.53587  -0.52700  -0.52520  -0.52495  -0.51917
 Alpha  occ. eigenvalues --   -0.51563  -0.50982  -0.50627  -0.49904  -0.49490
 Alpha  occ. eigenvalues --   -0.49162  -0.48880  -0.48213  -0.48133  -0.47953
 Alpha  occ. eigenvalues --   -0.47716  -0.47496  -0.46952  -0.46390  -0.46094
 Alpha  occ. eigenvalues --   -0.44919  -0.44738  -0.44190  -0.43841  -0.43272
 Alpha  occ. eigenvalues --   -0.42558  -0.42168  -0.41350  -0.41258  -0.41057
 Alpha  occ. eigenvalues --   -0.40898  -0.40523  -0.39990  -0.39771  -0.39251
 Alpha  occ. eigenvalues --   -0.39236  -0.39092  -0.38419  -0.38041  -0.37649
 Alpha  occ. eigenvalues --   -0.37374  -0.36743  -0.36521  -0.35817  -0.34927
 Alpha  occ. eigenvalues --   -0.34401  -0.34027  -0.31682  -0.31177  -0.29786
 Alpha  occ. eigenvalues --   -0.28868  -0.28607  -0.27685  -0.24661  -0.24278
 Alpha virt. eigenvalues --   -0.01521   0.00383   0.03522   0.03730   0.10122
 Alpha virt. eigenvalues --    0.10908   0.11608   0.12270   0.13146   0.13447
 Alpha virt. eigenvalues --    0.14225   0.14484   0.14752   0.15232   0.15596

 Mulliken charges:
               1
     1  C   -0.306294
     2  C   -0.307269
     3  C   -0.309166
     4  C   -0.060198
     5  C    0.055878
     6  C   -0.310929
     7  H    0.174286
     8  H    0.162995
     9  H    0.165784
    10  H    0.150744
    11  H    0.163781
    12  H    0.208930
    13  H    0.173659
    14  H    0.193995
    15  H    0.163434
    16  H    0.154644
    17  N   -0.431337
    18  C    0.067695
    19  C    0.064847
    20  C   -0.201488
    21  H    0.206086
    22  C   -0.209864
    23  H    0.244552
    24  C    0.446168
    25  H    0.192321
    26  H    0.211373
    27  N   -0.525240
    28  C   -0.169905
    29  H    0.169585
    30  H    0.227613
    31  C   -0.154255
    32  H    0.164490
    33  H    0.207171
    34  N   -0.812942
    35  S    1.251529
    36  O   -0.610193
    37  O   -0.604209
    38  C    0.081146
    39  C   -0.186761
    40  C   -0.190207
    41  C   -0.171824
    42  C   -0.163902
    43  C   -0.211567
    44  H    0.215429
    45  H    0.140349
    46  H    0.154961
    47  H    0.158575
    48  H    0.152376
    49  O   -0.553503
    50  H    0.446835
    51  C    0.722229
    52  O   -0.720067
    53  O   -0.717433
    54  H    0.442653
    55  C   -0.338155
    56  H    0.147891
    57  H    0.151113
    58  C   -0.089206
    59  H    0.138778
    60  H    0.148232
    61  C   -0.663591
    62  H    0.275483
    63  H    0.196616
    64  H    0.217948
    65  C   -0.290897
    66  H    0.133788
    67  H    0.145786
    68  C   -0.473223
    69  H    0.148643
    70  H    0.153453
    71  H    0.146105
    72  C   -0.332146
    73  H    0.186698
    74  H    0.162637
    75  C   -0.342676
    76  H    0.198499
    77  H    0.170664
 Sum of Mulliken charges =  -0.00000

 Dipole moment (field-independent basis, Debye):
    X=             -2.7502    Y=             -2.0448    Z=             -6.2675  Tot=              7.1432
 Quadrupole moment (field-independent basis, Debye-Ang):
   XX=           -206.2279   YY=           -222.2359   ZZ=           -220.1487
   XY=            -12.6051   XZ=             -5.0368   YZ=             10.1456

 Normal termination of Gaussian 16 at Thu Feb  7 13:39:00 2019.
