 Gaussian 16, Revision A.03,
 Gaussian 16:  ES64L-G16RevA.03 25-Dec-2016

 ------------------------------------------
 #p M062X/6-31G* em=gd3 force int=ultrafine
 ------------------------------------------

 -----
 Title
 -----
 Symbolic Z-matrix:
 Charge =  0 Multiplicity = 1

                         Standard orientation:
 ---------------------------------------------------------------------
 Center     Atomic      Atomic             Coordinates (Angstroms)
 Number     Number       Type             X           Y           Z
 ---------------------------------------------------------------------
      1          6           0       -4.854206    0.350680   -0.491441
      2          6           0       -4.983144   -0.923736   -1.331236
      3          6           0       -3.627399   -1.328323   -1.923964
      4          6           0       -2.635557   -1.538073   -0.785492
      5          6           0       -2.462851   -0.246219    0.058809
      6          6           0       -3.822613    0.181379    0.627519
      7          1           0       -3.713266   -2.235067   -2.533240
      8          1           0       -5.359673   -1.740544   -0.701753
      9          1           0       -5.707923   -0.781209   -2.139362
     10          1           0       -4.538724    1.177171   -1.144077
     11          1           0       -5.828595    0.626405   -0.074323
     12          1           0       -2.991122   -2.337756   -0.127990
     13          1           0       -2.171431    0.532698   -0.663002
     14          1           0       -4.162855   -0.561359    1.359039
     15          1           0       -3.674649    1.131024    1.156164
     16          1           0       -3.287480   -0.513792   -2.578469
     17          7           0       -1.283353   -1.956174   -1.230291
     18          6           0       -0.631162   -1.271824   -2.199766
     19          6           0       -0.560098   -2.734901   -0.390453
     20          6           0        0.724535   -1.332347   -2.351873
     21          1           0       -1.242940   -0.644717   -2.835335
     22          6           0        0.798982   -2.844136   -0.478084
     23          1           0       -1.120846   -3.234651    0.392041
     24          6           0        1.512311   -2.063289   -1.419031
     25          1           0        1.185221   -0.761311   -3.147416
     26          1           0        1.304402   -3.441633    0.267563
     27          7           0        2.851831   -1.999874   -1.410501
     28          6           0        3.610440   -2.502741   -0.256502
     29          1           0        3.519080   -3.589096   -0.173761
     30          1           0        3.218507   -2.038629    0.659426
     31          6           0        3.584262   -0.925311   -2.102311
     32          1           0        3.854643   -1.244909   -3.115651
     33          1           0        2.963935   -0.026739   -2.152302
     34          7           0       -1.351334   -0.332702    0.971747
     35         16           0       -1.372466   -1.221385    2.281720
     36          8           0       -2.486282   -2.192147    2.319088
     37          8           0       -0.014675   -1.795212    2.479650
     38          6           0       -0.788808    2.786193   -0.079366
     39          6           0       -0.195886    2.136740   -1.170223
     40          6           0       -0.833502    2.143161   -2.409455
     41          6           0       -2.077733    2.756006   -2.566890
     42          6           0       -2.679690    3.377990   -1.476085
     43          6           0       -2.030797    3.393605   -0.244757
     44          1           0        0.739332    1.596315   -1.032498
     45          1           0       -0.360431    1.660726   -3.262581
     46          1           0       -2.577061    2.748044   -3.531051
     47          1           0       -3.653213    3.847652   -1.576622
     48          1           0       -2.495149    3.870291    0.614971
     49          8           0        0.295940    1.538201    1.687803
     50          1           0       -0.328022    0.828631    1.289567
     51          6           0        2.421141    0.566257    1.166823
     52          8           0        2.094461    0.159554    0.067037
     53          8           0        2.273625   -0.141702    2.283541
     54          1           0        1.536363   -0.796700    2.176544
     55          6           0        3.144971    1.875491    1.385945
     56          1           0        2.612206    2.414242    2.177067
     57          1           0        4.137806    1.638486    1.790570
     58          6           0       -0.138177    2.795446    1.286338
     59          1           0       -0.846937    3.223029    2.013264
     60          1           0        0.743631    3.453744    1.279234
     61          6           0       -1.554697   -0.083595    3.655223
     62          1           0       -0.747060    0.644485    3.547709
     63          1           0       -2.526564    0.408216    3.581342
     64          1           0       -1.463435   -0.633547    4.592581
     65          6           0        3.277611    2.723879    0.122444
     66          1           0        3.664548    2.103247   -0.694171
     67          1           0        2.289101    3.062748   -0.209363
     68          6           0        4.190785    3.928322    0.341057
     69          1           0        4.326868    4.501848   -0.580430
     70          1           0        3.781030    4.604827    1.098659
     71          1           0        5.179783    3.607237    0.685606
     72          6           0        5.036747   -2.043648   -0.542978
     73          1           0        5.634298   -1.974115    0.368227
     74          1           0        5.527216   -2.743245   -1.227442
     75          6           0        4.817843   -0.691376   -1.224408
     76          1           0        4.574780    0.062701   -0.470750
     77          1           0        5.679666   -0.344676   -1.798217
 ---------------------------------------------------------------------

 SCF Done:  E(RM062X) =  -1991.37880156     A.U. after   15 cycles

 The electronic state is 1-A.
 Alpha  occ. eigenvalues --  -90.10243 -19.63681 -19.60195 -19.58317 -19.58301
 Alpha  occ. eigenvalues --  -19.58246 -14.84809 -14.80405 -14.69281 -10.65967
 Alpha  occ. eigenvalues --  -10.63222 -10.62455 -10.61681 -10.59291 -10.59042
 Alpha  occ. eigenvalues --  -10.58851 -10.57834 -10.57208 -10.56776 -10.56743
 Alpha  occ. eigenvalues --  -10.55911 -10.55676 -10.55648 -10.55122 -10.55050
 Alpha  occ. eigenvalues --  -10.54954 -10.54628 -10.54628 -10.54510 -10.54008
 Alpha  occ. eigenvalues --  -10.53682 -10.53626 -10.53619 -10.53223 -10.52997
 Alpha  occ. eigenvalues --  -10.52631  -8.41191  -6.33427  -6.33338  -6.33260
 Alpha  occ. eigenvalues --   -1.19310  -1.17682  -1.12935  -1.10107  -1.09844
 Alpha  occ. eigenvalues --   -1.09037  -1.05992  -0.97646  -0.95396  -0.94753
 Alpha  occ. eigenvalues --   -0.92223  -0.89820  -0.88577  -0.88456  -0.85093
 Alpha  occ. eigenvalues --   -0.84786  -0.83759  -0.83579  -0.83290  -0.79977
 Alpha  occ. eigenvalues --   -0.79503  -0.76310  -0.75605  -0.74571  -0.70978
 Alpha  occ. eigenvalues --   -0.70348  -0.69441  -0.68649  -0.68355  -0.68127
 Alpha  occ. eigenvalues --   -0.66030  -0.64788  -0.63924  -0.63554  -0.61633
 Alpha  occ. eigenvalues --   -0.60305  -0.59400  -0.59136  -0.58359  -0.56197
 Alpha  occ. eigenvalues --   -0.55843  -0.55342  -0.55198  -0.54615  -0.53937
 Alpha  occ. eigenvalues --   -0.53496  -0.53058  -0.52661  -0.51808  -0.51630
 Alpha  occ. eigenvalues --   -0.51073  -0.50942  -0.50641  -0.49974  -0.49876
 Alpha  occ. eigenvalues --   -0.49779  -0.49520  -0.48763  -0.48316  -0.48060
 Alpha  occ. eigenvalues --   -0.47603  -0.47283  -0.47105  -0.47006  -0.45785
 Alpha  occ. eigenvalues --   -0.45479  -0.45147  -0.44014  -0.43781  -0.43505
 Alpha  occ. eigenvalues --   -0.43187  -0.42846  -0.42128  -0.41922  -0.41777
 Alpha  occ. eigenvalues --   -0.41267  -0.40934  -0.40511  -0.39899  -0.39706
 Alpha  occ. eigenvalues --   -0.39448  -0.39398  -0.39210  -0.38413  -0.38132
 Alpha  occ. eigenvalues --   -0.37469  -0.36328  -0.35837  -0.35350  -0.35110
 Alpha  occ. eigenvalues --   -0.34177  -0.32935  -0.31929  -0.31721  -0.30986
 Alpha  occ. eigenvalues --   -0.30006  -0.28674  -0.28340  -0.27252  -0.25388
 Alpha virt. eigenvalues --   -0.01093   0.00691   0.03085   0.03655   0.08803
 Alpha virt. eigenvalues --    0.10136   0.10968   0.11755   0.12974   0.13453
 Alpha virt. eigenvalues --    0.13731   0.14323   0.15027   0.15413   0.15866

 Mulliken charges:
               1
     1  C   -0.303746
     2  C   -0.304743
     3  C   -0.309618
     4  C   -0.069674
     5  C    0.071046
     6  C   -0.304969
     7  H    0.167334
     8  H    0.161842
     9  H    0.159454
    10  H    0.144405
    11  H    0.157453
    12  H    0.207641
    13  H    0.140336
    14  H    0.183772
    15  H    0.149918
    16  H    0.149786
    17  N   -0.424784
    18  C    0.096632
    19  C    0.096817
    20  C   -0.226513
    21  H    0.204388
    22  C   -0.228307
    23  H    0.256655
    24  C    0.425916
    25  H    0.187385
    26  H    0.207980
    27  N   -0.525387
    28  C   -0.159399
    29  H    0.177940
    30  H    0.197936
    31  C   -0.145068
    32  H    0.169423
    33  H    0.193571
    34  N   -0.779217
    35  S    1.243481
    36  O   -0.633390
    37  O   -0.665975
    38  C    0.052833
    39  C   -0.177995
    40  C   -0.188787
    41  C   -0.169711
    42  C   -0.160283
    43  C   -0.199820
    44  H    0.203790
    45  H    0.140128
    46  H    0.157439
    47  H    0.162625
    48  H    0.159150
    49  O   -0.718375
    50  H    0.487263
    51  C    0.672477
    52  O   -0.521410
    53  O   -0.646611
    54  H    0.480228
    55  C   -0.376220
    56  H    0.200477
    57  H    0.168731
    58  C   -0.061791
    59  H    0.124764
    60  H    0.139148
    61  C   -0.667224
    62  H    0.235291
    63  H    0.184115
    64  H    0.205098
    65  C   -0.292326
    66  H    0.148057
    67  H    0.162991
    68  C   -0.480747
    69  H    0.160346
    70  H    0.159199
    71  H    0.152431
    72  C   -0.335209
    73  H    0.183989
    74  H    0.169307
    75  C   -0.335223
    76  H    0.179049
    77  H    0.172490
 Sum of Mulliken charges =  -0.00000

 Dipole moment (field-independent basis, Debye):
    X=              1.7723    Y=              0.3113    Z=             -6.8047  Tot=              7.0386
 Quadrupole moment (field-independent basis, Debye-Ang):
   XX=           -200.8309   YY=           -222.6929   ZZ=           -222.9792
   XY=            -11.6214   XZ=              1.5854   YZ=             13.4082

 Normal termination of Gaussian 16 at Thu Feb  7 21:03:51 2019.
