 Gaussian 16, Revision A.03,
 Gaussian 16:  ES64L-G16RevA.03 25-Dec-2016

 ------------------------------------------
 #p M062X/6-31G* em=gd3 force int=ultrafine
 ------------------------------------------

 -----
 Title
 -----
 Symbolic Z-matrix:
 Charge =  0 Multiplicity = 1

                         Standard orientation:
 ---------------------------------------------------------------------
 Center     Atomic      Atomic             Coordinates (Angstroms)
 Number     Number       Type             X           Y           Z
 ---------------------------------------------------------------------
      1          6           0       -4.833642    0.470155   -0.530872
      2          6           0       -5.027995   -0.845458   -1.290901
      3          6           0       -3.702933   -1.329402   -1.891832
      4          6           0       -2.687334   -1.504531   -0.768160
      5          6           0       -2.453986   -0.166767   -0.022931
      6          6           0       -3.774369    0.338284    0.568385
      7          1           0       -3.830399   -2.271107   -2.436261
      8          1           0       -5.416675   -1.612409   -0.608131
      9          1           0       -5.768554   -0.721845   -2.087315
     10          1           0       -4.520217    1.249676   -1.238165
     11          1           0       -5.783747    0.794889   -0.094397
     12          1           0       -3.063340   -2.241838   -0.051842
     13          1           0       -2.133235    0.565160   -0.775193
     14          1           0       -4.120932   -0.353886    1.342798
     15          1           0       -3.587321    1.310107    1.038076
     16          1           0       -3.352692   -0.572476   -2.606495
     17          7           0       -1.368106   -2.003345   -1.208935
     18          6           0       -0.688024   -1.355954   -2.193021
     19          6           0       -0.669785   -2.785081   -0.343100
     20          6           0        0.664543   -1.434885   -2.314527
     21          1           0       -1.282170   -0.740860   -2.857257
     22          6           0        0.684652   -2.900561   -0.390975
     23          1           0       -1.253499   -3.259276    0.438398
     24          6           0        1.425648   -2.128080   -1.326022
     25          1           0        1.150345   -0.891412   -3.113771
     26          1           0        1.173748   -3.482596    0.377063
     27          7           0        2.750698   -2.060020   -1.280407
     28          6           0        3.493332   -2.528092   -0.100030
     29          1           0        3.360555   -3.604809    0.037796
     30          1           0        3.120347   -1.977431    0.775836
     31          6           0        3.494224   -1.010697   -1.994937
     32          1           0        3.739814   -1.350169   -3.008906
     33          1           0        2.880952   -0.106608   -2.031254
     34          7           0       -1.336894   -0.228897    0.907649
     35         16           0       -1.356583   -1.050193    2.321786
     36          8           0       -2.589671   -1.840903    2.359387
     37          8           0       -0.083917   -1.756660    2.477908
     38          6           0       -0.537490    2.646924   -0.078859
     39          6           0       -0.064131    2.090058   -1.277001
     40          6           0       -0.830787    2.152651   -2.439851
     41          6           0       -2.084598    2.763550   -2.439767
     42          6           0       -2.566118    3.317912   -1.256332
     43          6           0       -1.795371    3.258062   -0.095107
     44          1           0        0.882405    1.558485   -1.258847
     45          1           0       -0.437599    1.725028   -3.360251
     46          1           0       -2.674652    2.814571   -3.350711
     47          1           0       -3.538875    3.801627   -1.236154
     48          1           0       -2.180708    3.700897    0.821290
     49          8           0        0.743864    1.514798    1.792465
     50          1           0       -0.375578    0.010819    0.585071
     51          6           0        1.940371    0.803113    1.203746
     52          8           0        1.601625    0.190838    0.096997
     53          8           0        2.280994   -0.069107    2.266799
     54          1           0        1.578614   -0.744257    2.268595
     55          6           0        3.114819    1.811017    1.143652
     56          1           0        3.004465    2.526845    1.968512
     57          1           0        4.023679    1.239603    1.370582
     58          6           0        0.278488    2.703035    1.217263
     59          1           0       -0.374008    3.158310    1.974767
     60          1           0        1.107270    3.411917    1.069569
     61          6           0       -1.411483    0.194851    3.588713
     62          1           0       -0.521288    0.813304    3.441863
     63          1           0       -2.329596    0.771039    3.462487
     64          1           0       -1.400044   -0.316321    4.552875
     65          6           0        3.316348    2.549462   -0.177216
     66          1           0        3.525107    1.822276   -0.970998
     67          1           0        2.401121    3.064073   -0.489164
     68          6           0        4.455082    3.563976   -0.081242
     69          1           0        4.627849    4.077238   -1.032219
     70          1           0        4.230875    4.325422    0.674316
     71          1           0        5.390680    3.076657    0.215893
     72          6           0        4.930601   -2.139818   -0.426046
     73          1           0        5.546493   -2.067415    0.472075
     74          1           0        5.380164   -2.876959   -1.100815
     75          6           0        4.740879   -0.796759   -1.132845
     76          1           0        4.512001   -0.031518   -0.386129
     77          1           0        5.605263   -0.479347   -1.719886
 ---------------------------------------------------------------------

 SCF Done:  E(RM062X) =  -1991.35720592     A.U. after   14 cycles

 The electronic state is 1-A.
 Alpha  occ. eigenvalues --  -90.14526 -19.62101 -19.62031 -19.58495 -19.56641
 Alpha  occ. eigenvalues --  -19.50791 -14.85280 -14.80327 -14.76476 -10.63367
 Alpha  occ. eigenvalues --  -10.62776 -10.62260 -10.62023 -10.60941 -10.59646
 Alpha  occ. eigenvalues --  -10.58188 -10.57959 -10.57881 -10.57173 -10.56884
 Alpha  occ. eigenvalues --  -10.56821 -10.55836 -10.55791 -10.54969 -10.54963
 Alpha  occ. eigenvalues --  -10.54894 -10.54790 -10.54638 -10.54555 -10.54517
 Alpha  occ. eigenvalues --  -10.54430 -10.54354 -10.52971 -10.51272 -10.51227
 Alpha  occ. eigenvalues --  -10.49489  -8.45501  -6.37724  -6.37691  -6.37536
 Alpha  occ. eigenvalues --   -1.22328  -1.13633  -1.13200  -1.10578  -1.09224
 Alpha  occ. eigenvalues --   -1.05730  -1.02154  -0.99173  -0.95856  -0.95012
 Alpha  occ. eigenvalues --   -0.93561  -0.90317  -0.88743  -0.86198  -0.85515
 Alpha  occ. eigenvalues --   -0.84846  -0.84779  -0.84060  -0.83074  -0.82910
 Alpha  occ. eigenvalues --   -0.76698  -0.76052  -0.75773  -0.74233  -0.73037
 Alpha  occ. eigenvalues --   -0.71768  -0.68288  -0.68147  -0.67903  -0.67389
 Alpha  occ. eigenvalues --   -0.66622  -0.65351  -0.64822  -0.63518  -0.60504
 Alpha  occ. eigenvalues --   -0.60365  -0.59669  -0.59459  -0.57731  -0.57716
 Alpha  occ. eigenvalues --   -0.57283  -0.56485  -0.55824  -0.55139  -0.54263
 Alpha  occ. eigenvalues --   -0.53611  -0.52828  -0.52602  -0.52487  -0.51955
 Alpha  occ. eigenvalues --   -0.51597  -0.50918  -0.50469  -0.49929  -0.49408
 Alpha  occ. eigenvalues --   -0.49124  -0.48959  -0.48233  -0.48122  -0.47860
 Alpha  occ. eigenvalues --   -0.47777  -0.47545  -0.47044  -0.46295  -0.46031
 Alpha  occ. eigenvalues --   -0.45019  -0.44747  -0.44254  -0.43811  -0.43278
 Alpha  occ. eigenvalues --   -0.42593  -0.42188  -0.41239  -0.41173  -0.40982
 Alpha  occ. eigenvalues --   -0.40822  -0.40555  -0.39973  -0.39776  -0.39255
 Alpha  occ. eigenvalues --   -0.39202  -0.39091  -0.38395  -0.38175  -0.37766
 Alpha  occ. eigenvalues --   -0.37313  -0.36660  -0.36448  -0.35944  -0.34949
 Alpha  occ. eigenvalues --   -0.34425  -0.34110  -0.31789  -0.31223  -0.29803
 Alpha  occ. eigenvalues --   -0.28877  -0.28597  -0.27724  -0.24339  -0.24076
 Alpha virt. eigenvalues --   -0.01459   0.00384   0.03482   0.03718   0.10118
 Alpha virt. eigenvalues --    0.10766   0.11496   0.12367   0.13153   0.13341
 Alpha virt. eigenvalues --    0.14196   0.14363   0.14737   0.15312   0.15582

 Mulliken charges:
               1
     1  C   -0.306360
     2  C   -0.307457
     3  C   -0.309734
     4  C   -0.059188
     5  C    0.055528
     6  C   -0.310059
     7  H    0.174798
     8  H    0.163067
     9  H    0.166305
    10  H    0.150735
    11  H    0.164484
    12  H    0.207772
    13  H    0.174914
    14  H    0.194956
    15  H    0.163474
    16  H    0.155451
    17  N   -0.433868
    18  C    0.070074
    19  C    0.066691
    20  C   -0.203053
    21  H    0.205522
    22  C   -0.211301
    23  H    0.243805
    24  C    0.447644
    25  H    0.192488
    26  H    0.211083
    27  N   -0.523433
    28  C   -0.168967
    29  H    0.168729
    30  H    0.226165
    31  C   -0.151810
    32  H    0.163185
    33  H    0.206495
    34  N   -0.805984
    35  S    1.248568
    36  O   -0.606974
    37  O   -0.600160
    38  C    0.073863
    39  C   -0.190712
    40  C   -0.190953
    41  C   -0.172516
    42  C   -0.164495
    43  C   -0.210002
    44  H    0.220931
    45  H    0.140217
    46  H    0.154986
    47  H    0.158510
    48  H    0.152245
    49  O   -0.561040
    50  H    0.442595
    51  C    0.719849
    52  O   -0.716647
    53  O   -0.714830
    54  H    0.438767
    55  C   -0.338256
    56  H    0.146626
    57  H    0.150352
    58  C   -0.085942
    59  H    0.136479
    60  H    0.149372
    61  C   -0.664255
    62  H    0.276722
    63  H    0.197742
    64  H    0.219128
    65  C   -0.288895
    66  H    0.134610
    67  H    0.144291
    68  C   -0.473674
    69  H    0.148239
    70  H    0.152212
    71  H    0.147128
    72  C   -0.332914
    73  H    0.186315
    74  H    0.161779
    75  C   -0.341492
    76  H    0.200700
    77  H    0.169381
 Sum of Mulliken charges =  -0.00000

 Dipole moment (field-independent basis, Debye):
    X=             -3.0774    Y=             -2.1597    Z=             -6.0929  Tot=              7.1595
 Quadrupole moment (field-independent basis, Debye-Ang):
   XX=           -206.9962   YY=           -221.7356   ZZ=           -219.9860
   XY=            -12.8203   XZ=             -4.6452   YZ=             10.2962

 Normal termination of Gaussian 16 at Thu Feb  7 12:33:43 2019.
