 Gaussian 16, Revision A.03,
 Gaussian 16:  ES64L-G16RevA.03 25-Dec-2016

 ------------------------------------------
 #p M062X/6-31G* em=gd3 force int=ultrafine
 ------------------------------------------

 -----
 Title
 -----
 Symbolic Z-matrix:
 Charge =  0 Multiplicity = 1

                         Standard orientation:
 ---------------------------------------------------------------------
 Center     Atomic      Atomic             Coordinates (Angstroms)
 Number     Number       Type             X           Y           Z
 ---------------------------------------------------------------------
      1          6           0       -4.781353    0.408903   -0.551068
      2          6           0       -4.963280   -0.876582   -1.363730
      3          6           0       -3.633063   -1.325382   -1.981403
      4          6           0       -2.622641   -1.537892   -0.860248
      5          6           0       -2.394263   -0.225953   -0.065219
      6          6           0       -3.720464    0.245058    0.541998
      7          1           0       -3.753131   -2.245353   -2.563505
      8          1           0       -5.345633   -1.673920   -0.712959
      9          1           0       -5.704271   -0.726907   -2.155223
     10          1           0       -4.476218    1.218695   -1.226568
     11          1           0       -5.734264    0.706741   -0.101593
     12          1           0       -3.001331   -2.300056   -0.172326
     13          1           0       -2.077649    0.534476   -0.790569
     14          1           0       -4.061353   -0.480127    1.288569
     15          1           0       -3.543453    1.199978    1.048239
     16          1           0       -3.286507   -0.537548   -2.663873
     17          7           0       -1.297732   -2.017561   -1.305622
     18          6           0       -0.613095   -1.335501   -2.261882
     19          6           0       -0.599684   -2.804536   -0.443462
     20          6           0        0.743563   -1.380605   -2.355372
     21          1           0       -1.207765   -0.721708   -2.927233
     22          6           0        0.758212   -2.881752   -0.459098
     23          1           0       -1.189755   -3.312860    0.311471
     24          6           0        1.497877   -2.064834   -1.355416
     25          1           0        1.232583   -0.812941   -3.135286
     26          1           0        1.244867   -3.467691    0.307595
     27          7           0        2.818085   -1.947945   -1.266487
     28          6           0        3.544116   -2.377836   -0.061185
     29          1           0        3.436718   -3.455298    0.090882
     30          1           0        3.135175   -1.825873    0.798067
     31          6           0        3.542406   -0.884061   -1.974399
     32          1           0        3.793181   -1.213141   -2.990283
     33          1           0        2.907977    0.005422   -2.016489
     34          7           0       -1.277995   -0.322236    0.861971
     35         16           0       -1.334524   -1.174894    2.249499
     36          8           0       -2.529387   -2.024763    2.223382
     37          8           0       -0.039159   -1.830171    2.450275
     38          6           0       -0.617516    2.694267    0.052348
     39          6           0       -0.143661    2.221357   -1.181530
     40          6           0       -0.930096    2.315014   -2.328100
     41          6           0       -2.207206    2.874345   -2.275934
     42          6           0       -2.691553    3.341580   -1.057420
     43          6           0       -1.898722    3.252151    0.087188
     44          1           0        0.820275    1.726883   -1.212529
     45          1           0       -0.535700    1.954101   -3.275722
     46          1           0       -2.814082    2.950858   -3.173975
     47          1           0       -3.683459    3.781220   -0.995608
     48          1           0       -2.284894    3.631441    1.031514
     49          8           0        0.692452    1.551336    1.903105
     50          1           0       -0.293207   -0.071352    0.553148
     51          6           0        1.830573    0.827480    1.260480
     52          8           0        1.426328    0.221092    0.162597
     53          8           0        2.220405   -0.057366    2.295202
     54          1           0        1.526169   -0.740709    2.319900
     55          6           0        3.032393    1.801345    1.136582
     56          1           0        2.990170    2.517465    1.967306
     57          1           0        3.926402    1.192596    1.321144
     58          6           0        0.225494    2.741252    1.330231
     59          1           0       -0.403010    3.205300    2.101493
     60          1           0        1.059454    3.438546    1.161658
     61          6           0       -1.506268    0.031984    3.543340
     62          1           0       -0.643447    0.697662    3.452227
     63          1           0       -2.444034    0.567752    3.386303
     64          1           0       -1.515944   -0.500541    4.495777
     65          6           0        3.207358    2.532744   -0.191293
     66          1           0        3.187739    1.801698   -1.006177
     67          1           0        2.371188    3.213417   -0.387610
     68          6           0        4.514455    3.323212   -0.231874
     69          1           0        4.645411    3.843898   -1.185628
     70          1           0        4.540847    4.072549    0.566295
     71          1           0        5.376817    2.660476   -0.087137
     72          6           0        4.979669   -1.963343   -0.364157
     73          1           0        5.571590   -1.852893    0.546224
     74          1           0        5.461658   -2.708767   -1.006201
     75          6           0        4.787017   -0.643226   -1.114688
     76          1           0        4.567168    0.150257   -0.396125
     77          1           0        5.652859   -0.347409   -1.710813
 ---------------------------------------------------------------------

 SCF Done:  E(RM062X) =  -1991.35872698     A.U. after   14 cycles

 The electronic state is 1-A.
 Alpha  occ. eigenvalues --  -90.14130 -19.61742 -19.61720 -19.58727 -19.56713
 Alpha  occ. eigenvalues --  -19.51319 -14.85155 -14.80453 -14.75647 -10.63413
 Alpha  occ. eigenvalues --  -10.62783 -10.62283 -10.62156 -10.60702 -10.59300
 Alpha  occ. eigenvalues --  -10.58535 -10.57984 -10.57923 -10.57133 -10.56889
 Alpha  occ. eigenvalues --  -10.56676 -10.55642 -10.55588 -10.55130 -10.54892
 Alpha  occ. eigenvalues --  -10.54825 -10.54763 -10.54709 -10.54557 -10.54385
 Alpha  occ. eigenvalues --  -10.54308 -10.54287 -10.53086 -10.51576 -10.51496
 Alpha  occ. eigenvalues --  -10.49735  -8.45107  -6.37323  -6.37301  -6.37144
 Alpha  occ. eigenvalues --   -1.21956  -1.13614  -1.13505  -1.10211  -1.09350
 Alpha  occ. eigenvalues --   -1.05897  -1.01683  -0.99355  -0.95723  -0.94978
 Alpha  occ. eigenvalues --   -0.93479  -0.90284  -0.88752  -0.85883  -0.85811
 Alpha  occ. eigenvalues --   -0.84817  -0.84690  -0.84263  -0.83048  -0.82664
 Alpha  occ. eigenvalues --   -0.76658  -0.76312  -0.75834  -0.74390  -0.72760
 Alpha  occ. eigenvalues --   -0.71619  -0.68328  -0.68250  -0.67935  -0.67183
 Alpha  occ. eigenvalues --   -0.66756  -0.65219  -0.64868  -0.63523  -0.60569
 Alpha  occ. eigenvalues --   -0.60403  -0.59791  -0.58954  -0.57810  -0.57579
 Alpha  occ. eigenvalues --   -0.57160  -0.56432  -0.55761  -0.55169  -0.54185
 Alpha  occ. eigenvalues --   -0.53518  -0.52647  -0.52432  -0.52402  -0.51903
 Alpha  occ. eigenvalues --   -0.51543  -0.51046  -0.50838  -0.49864  -0.49582
 Alpha  occ. eigenvalues --   -0.49157  -0.48822  -0.48206  -0.48125  -0.48049
 Alpha  occ. eigenvalues --   -0.47652  -0.47451  -0.46901  -0.46452  -0.46100
 Alpha  occ. eigenvalues --   -0.44890  -0.44718  -0.44124  -0.43878  -0.43256
 Alpha  occ. eigenvalues --   -0.42488  -0.42113  -0.41445  -0.41365  -0.41143
 Alpha  occ. eigenvalues --   -0.40893  -0.40466  -0.39998  -0.39826  -0.39373
 Alpha  occ. eigenvalues --   -0.39256  -0.39059  -0.38452  -0.37926  -0.37586
 Alpha  occ. eigenvalues --   -0.37386  -0.36732  -0.36571  -0.35715  -0.34893
 Alpha  occ. eigenvalues --   -0.34379  -0.33934  -0.31689  -0.31054  -0.29760
 Alpha  occ. eigenvalues --   -0.28887  -0.28594  -0.27625  -0.24917  -0.24463
 Alpha virt. eigenvalues --   -0.01499   0.00425   0.03569   0.03774   0.10151
 Alpha virt. eigenvalues --    0.11023   0.11645   0.12156   0.13193   0.13533
 Alpha virt. eigenvalues --    0.14202   0.14641   0.14769   0.15255   0.15600

 Mulliken charges:
               1
     1  C   -0.306207
     2  C   -0.307033
     3  C   -0.309554
     4  C   -0.059825
     5  C    0.057064
     6  C   -0.311771
     7  H    0.173845
     8  H    0.162772
     9  H    0.165363
    10  H    0.151034
    11  H    0.163148
    12  H    0.208754
    13  H    0.172811
    14  H    0.193037
    15  H    0.163562
    16  H    0.154067
    17  N   -0.430856
    18  C    0.068020
    19  C    0.063616
    20  C   -0.202788
    21  H    0.206687
    22  C   -0.208920
    23  H    0.245599
    24  C    0.446934
    25  H    0.191628
    26  H    0.211640
    27  N   -0.526864
    28  C   -0.172329
    29  H    0.169797
    30  H    0.231832
    31  C   -0.154484
    32  H    0.166717
    33  H    0.203671
    34  N   -0.816563
    35  S    1.253839
    36  O   -0.612277
    37  O   -0.607666
    38  C    0.086779
    39  C   -0.181998
    40  C   -0.189420
    41  C   -0.170868
    42  C   -0.163700
    43  C   -0.212184
    44  H    0.208383
    45  H    0.140770
    46  H    0.154834
    47  H    0.158547
    48  H    0.152476
    49  O   -0.549173
    50  H    0.449128
    51  C    0.726141
    52  O   -0.723324
    53  O   -0.718156
    54  H    0.445349
    55  C   -0.338448
    56  H    0.149384
    57  H    0.150527
    58  C   -0.092696
    59  H    0.140637
    60  H    0.147424
    61  C   -0.663092
    62  H    0.272475
    63  H    0.196253
    64  H    0.217451
    65  C   -0.294242
    66  H    0.138703
    67  H    0.146500
    68  C   -0.474020
    69  H    0.149118
    70  H    0.155423
    71  H    0.143869
    72  C   -0.331813
    73  H    0.187444
    74  H    0.163188
    75  C   -0.343572
    76  H    0.196280
    77  H    0.171321
 Sum of Mulliken charges =  -0.00000

 Dipole moment (field-independent basis, Debye):
    X=             -2.4133    Y=             -1.8557    Z=             -6.4106  Tot=              7.0967
 Quadrupole moment (field-independent basis, Debye-Ang):
   XX=           -205.4269   YY=           -223.1068   ZZ=           -219.7677
   XY=            -12.2302   XZ=             -5.3959   YZ=             10.0143

 Normal termination of Gaussian 16 at Thu Feb  7 15:40:29 2019.
