 Gaussian 16, Revision A.03,
 Gaussian 16:  ES64L-G16RevA.03 25-Dec-2016

 ------------------------------------------
 #p M062X/6-31G* em=gd3 force int=ultrafine
 ------------------------------------------

 -----
 Title
 -----
 Symbolic Z-matrix:
 Charge =  0 Multiplicity = 1

                         Standard orientation:
 ---------------------------------------------------------------------
 Center     Atomic      Atomic             Coordinates (Angstroms)
 Number     Number       Type             X           Y           Z
 ---------------------------------------------------------------------
      1          6           0       -4.854916    0.481827   -0.545079
      2          6           0       -5.037265   -0.831626   -1.311650
      3          6           0       -3.704278   -1.310441   -1.899010
      4          6           0       -2.699004   -1.488334   -0.766036
      5          6           0       -2.481777   -0.153396   -0.012237
      6          6           0       -3.809417    0.346090    0.566314
      7          1           0       -3.823461   -2.249761   -2.449350
      8          1           0       -5.432294   -1.601428   -0.635788
      9          1           0       -5.768593   -0.707127   -2.116369
     10          1           0       -4.532398    1.264321   -1.245219
     11          1           0       -5.810811    0.804406   -0.119958
     12          1           0       -3.079032   -2.231513   -0.057715
     13          1           0       -2.153508    0.582849   -0.757045
     14          1           0       -4.162951   -0.350258    1.333933
     15          1           0       -3.628495    1.315750    1.043098
     16          1           0       -3.347987   -0.549236   -2.606055
     17          7           0       -1.374586   -1.980836   -1.198450
     18          6           0       -0.692759   -1.340746   -2.186197
     19          6           0       -0.678320   -2.764042   -0.332279
     20          6           0        0.658765   -1.430245   -2.312749
     21          1           0       -1.284439   -0.724365   -2.851166
     22          6           0        0.675007   -2.889153   -0.384738
     23          1           0       -1.262734   -3.234787    0.450695
     24          6           0        1.419569   -2.128699   -1.327563
     25          1           0        1.145229   -0.892887   -3.115770
     26          1           0        1.162204   -3.474355    0.382129
     27          7           0        2.745537   -2.078979   -1.291486
     28          6           0        3.486162   -2.553352   -0.111864
     29          1           0        3.347553   -3.629626    0.024219
     30          1           0        3.116205   -2.001179    0.764116
     31          6           0        3.501602   -1.041637   -2.011826
     32          1           0        3.753430   -1.394711   -3.019687
     33          1           0        2.897509   -0.132415   -2.061147
     34          7           0       -1.376920   -0.213200    0.931689
     35         16           0       -1.385249   -1.045432    2.340056
     36          8           0       -2.622051   -1.829444    2.376228
     37          8           0       -0.114045   -1.755927    2.482931
     38          6           0       -0.526838    2.643170   -0.092065
     39          6           0       -0.052799    2.065329   -1.279254
     40          6           0       -0.810490    2.129194   -2.448333
     41          6           0       -2.054408    2.759536   -2.462813
     42          6           0       -2.536134    3.333623   -1.288409
     43          6           0       -1.774933    3.273952   -0.121052
     44          1           0        0.886916    1.519792   -1.244282
     45          1           0       -0.418090    1.686926   -3.362163
     46          1           0       -2.637301    2.810552   -3.378378
     47          1           0       -3.501722    3.831880   -1.280820
     48          1           0       -2.159758    3.730835    0.788632
     49          8           0        0.741282    1.470978    1.749266
     50          1           0       -0.427759    0.074617    0.636176
     51          6           0        1.980793    0.790195    1.187712
     52          8           0        1.697543    0.188848    0.065636
     53          8           0        2.295061   -0.087437    2.255491
     54          1           0        1.588650   -0.758124    2.239736
     55          6           0        3.133057    1.823469    1.177263
     56          1           0        2.986580    2.532148    2.002848
     57          1           0        4.047291    1.268048    1.422844
     58          6           0        0.280815    2.677496    1.208466
     59          1           0       -0.375970    3.115815    1.973048
     60          1           0        1.110475    3.388845    1.081420
     61          6           0       -1.421815    0.194894    3.612079
     62          1           0       -0.531339    0.810773    3.454841
     63          1           0       -2.340550    0.773040    3.501248
     64          1           0       -1.396039   -0.318863    4.574602
     65          6           0        3.350215    2.568547   -0.137593
     66          1           0        3.584200    1.843719   -0.926331
     67          1           0        2.431789    3.067287   -0.467205
     68          6           0        4.470531    3.600907   -0.020309
     69          1           0        4.652061    4.117385   -0.967979
     70          1           0        4.222183    4.358658    0.731449
     71          1           0        5.408301    3.127834    0.292368
     72          6           0        4.925732   -2.170881   -0.434195
     73          1           0        5.538793   -2.100672    0.466074
     74          1           0        5.375249   -2.909527   -1.107464
     75          6           0        4.741547   -0.827325   -1.140975
     76          1           0        4.501932   -0.063748   -0.395611
     77          1           0        5.610291   -0.509143   -1.721209
 ---------------------------------------------------------------------

 SCF Done:  E(RM062X) =  -1991.35654051     A.U. after   15 cycles

 The electronic state is 1-A.
 Alpha  occ. eigenvalues --  -90.14711 -19.62281 -19.62160 -19.58502 -19.56638
 Alpha  occ. eigenvalues --  -19.50562 -14.85296 -14.80228 -14.76745 -10.63305
 Alpha  occ. eigenvalues --  -10.62743 -10.62240 -10.61951 -10.61043 -10.59791
 Alpha  occ. eigenvalues --  -10.58030 -10.57903 -10.57764 -10.57130 -10.56920
 Alpha  occ. eigenvalues --  -10.56886 -10.56047 -10.55857 -10.55050 -10.54953
 Alpha  occ. eigenvalues --  -10.54860 -10.54833 -10.54701 -10.54624 -10.54489
 Alpha  occ. eigenvalues --  -10.54391 -10.54364 -10.52959 -10.51160 -10.51088
 Alpha  occ. eigenvalues --  -10.49417  -8.45683  -6.37909  -6.37870  -6.37719
 Alpha  occ. eigenvalues --   -1.22501  -1.13613  -1.13063  -1.10744  -1.09107
 Alpha  occ. eigenvalues --   -1.05697  -1.02389  -0.99203  -0.95889  -0.95059
 Alpha  occ. eigenvalues --   -0.93561  -0.90278  -0.88699  -0.86377  -0.85375
 Alpha  occ. eigenvalues --   -0.84887  -0.84821  -0.83924  -0.83125  -0.83026
 Alpha  occ. eigenvalues --   -0.76680  -0.75945  -0.75708  -0.74232  -0.73180
 Alpha  occ. eigenvalues --   -0.71804  -0.68249  -0.68145  -0.67849  -0.67482
 Alpha  occ. eigenvalues --   -0.66535  -0.65441  -0.64797  -0.63479  -0.60498
 Alpha  occ. eigenvalues --   -0.60319  -0.59752  -0.59571  -0.57802  -0.57687
 Alpha  occ. eigenvalues --   -0.57288  -0.56494  -0.55820  -0.55130  -0.54308
 Alpha  occ. eigenvalues --   -0.53616  -0.52973  -0.52663  -0.52470  -0.52015
 Alpha  occ. eigenvalues --   -0.51653  -0.50866  -0.50332  -0.49930  -0.49356
 Alpha  occ. eigenvalues --   -0.49148  -0.48997  -0.48309  -0.48124  -0.47882
 Alpha  occ. eigenvalues --   -0.47757  -0.47586  -0.47123  -0.46211  -0.45935
 Alpha  occ. eigenvalues --   -0.45109  -0.44840  -0.44306  -0.43815  -0.43271
 Alpha  occ. eigenvalues --   -0.42583  -0.42225  -0.41149  -0.41081  -0.40929
 Alpha  occ. eigenvalues --   -0.40722  -0.40531  -0.39958  -0.39827  -0.39312
 Alpha  occ. eigenvalues --   -0.39206  -0.39022  -0.38426  -0.38292  -0.37847
 Alpha  occ. eigenvalues --   -0.37283  -0.36583  -0.36402  -0.36046  -0.34970
 Alpha  occ. eigenvalues --   -0.34442  -0.34179  -0.31870  -0.31231  -0.29856
 Alpha  occ. eigenvalues --   -0.28949  -0.28658  -0.27748  -0.24105  -0.23935
 Alpha virt. eigenvalues --   -0.01388   0.00420   0.03398   0.03680   0.10123
 Alpha virt. eigenvalues --    0.10659   0.11397   0.12463   0.13177   0.13255
 Alpha virt. eigenvalues --    0.14129   0.14371   0.14781   0.15388   0.15567

 Mulliken charges:
               1
     1  C   -0.306397
     2  C   -0.307651
     3  C   -0.310349
     4  C   -0.058706
     5  C    0.056951
     6  C   -0.309061
     7  H    0.175243
     8  H    0.163118
     9  H    0.166696
    10  H    0.150970
    11  H    0.164913
    12  H    0.207042
    13  H    0.175696
    14  H    0.194718
    15  H    0.163342
    16  H    0.155982
    17  N   -0.436064
    18  C    0.072575
    19  C    0.069398
    20  C   -0.204725
    21  H    0.204827
    22  C   -0.213668
    23  H    0.243385
    24  C    0.448844
    25  H    0.192526
    26  H    0.210746
    27  N   -0.521476
    28  C   -0.168338
    29  H    0.167838
    30  H    0.225299
    31  C   -0.149552
    32  H    0.162040
    33  H    0.206068
    34  N   -0.800312
    35  S    1.245969
    36  O   -0.604742
    37  O   -0.596053
    38  C    0.065733
    39  C   -0.194273
    40  C   -0.191395
    41  C   -0.172601
    42  C   -0.165104
    43  C   -0.208060
    44  H    0.225864
    45  H    0.140556
    46  H    0.155261
    47  H    0.158766
    48  H    0.152582
    49  O   -0.569582
    50  H    0.438945
    51  C    0.719231
    52  O   -0.712693
    53  O   -0.711810
    54  H    0.435064
    55  C   -0.339158
    56  H    0.144862
    57  H    0.149921
    58  C   -0.084298
    59  H    0.134896
    60  H    0.151652
    61  C   -0.664585
    62  H    0.275374
    63  H    0.198970
    64  H    0.220426
    65  C   -0.287066
    66  H    0.136943
    67  H    0.142488
    68  C   -0.474009
    69  H    0.147891
    70  H    0.151088
    71  H    0.147485
    72  C   -0.333362
    73  H    0.185859
    74  H    0.160915
    75  C   -0.340449
    76  H    0.202706
    77  H    0.167870
 Sum of Mulliken charges =  -0.00000

 Dipole moment (field-independent basis, Debye):
    X=             -3.3794    Y=             -2.0948    Z=             -5.9371  Tot=              7.1455
 Quadrupole moment (field-independent basis, Debye-Ang):
   XX=           -207.7454   YY=           -221.6671   ZZ=           -219.4855
   XY=            -13.0273   XZ=             -4.4385   YZ=             10.4325

 Normal termination of Gaussian 16 at Thu Feb  7 11:49:19 2019.
