 Gaussian 16, Revision A.03,
 Gaussian 16:  ES64L-G16RevA.03 25-Dec-2016

 ------------------------------------------
 #p M062X/6-31G* em=gd3 force int=ultrafine
 ------------------------------------------

 -----
 Title
 -----
 Symbolic Z-matrix:
 Charge =  0 Multiplicity = 1

                         Standard orientation:
 ---------------------------------------------------------------------
 Center     Atomic      Atomic             Coordinates (Angstroms)
 Number     Number       Type             X           Y           Z
 ---------------------------------------------------------------------
      1          6           0       -4.869907    0.158692   -0.444241
      2          6           0       -4.946137   -1.133562   -1.262918
      3          6           0       -3.574629   -1.490613   -1.848858
      4          6           0       -2.568854   -1.623234   -0.709615
      5          6           0       -2.441356   -0.294443    0.089480
      6          6           0       -3.819979    0.060089    0.666812
      7          1           0       -3.621287   -2.418983   -2.429698
      8          1           0       -5.290359   -1.955705   -0.621883
      9          1           0       -5.675438   -1.033391   -2.073625
     10          1           0       -4.599170    0.988005   -1.112980
     11          1           0       -5.852977    0.394570   -0.023014
     12          1           0       -2.894903   -2.412211   -0.026012
     13          1           0       -2.211937    0.474978   -0.663160
     14          1           0       -4.110853   -0.698197    1.404836
     15          1           0       -3.726576    1.019745    1.189126
     16          1           0       -3.275375   -0.682034   -2.529866
     17          7           0       -1.210648   -2.016574   -1.152557
     18          6           0       -0.588707   -1.348880   -2.151725
     19          6           0       -0.463966   -2.764270   -0.305909
     20          6           0        0.765270   -1.389135   -2.322931
     21          1           0       -1.224379   -0.756121   -2.796785
     22          6           0        0.895033   -2.849130   -0.410123
     23          1           0       -1.005621   -3.248684    0.499475
     24          6           0        1.578133   -2.078708   -1.380836
     25          1           0        1.203688   -0.836897   -3.143694
     26          1           0        1.423585   -3.417189    0.342458
     27          7           0        2.915433   -1.990489   -1.392229
     28          6           0        3.701321   -2.470534   -0.248281
     29          1           0        3.641328   -3.559730   -0.166633
     30          1           0        3.304983   -2.020433    0.672694
     31          6           0        3.619243   -0.924548   -2.121776
     32          1           0        3.881652   -1.266729   -3.130245
     33          1           0        2.981395   -0.039139   -2.187810
     34          7           0       -1.312647   -0.271422    0.994806
     35         16           0       -1.280702   -1.187942    2.281038
     36          8           0       -2.299540   -2.261260    2.282970
     37          8           0        0.111749   -1.661700    2.510204
     38          6           0       -1.005727    2.854438   -0.155424
     39          6           0       -0.336365    2.165600   -1.173906
     40          6           0       -0.913915    2.062909   -2.437460
     41          6           0       -2.175303    2.604054   -2.690075
     42          6           0       -2.857675    3.258720   -1.667590
     43          6           0       -2.269375    3.384050   -0.411066
     44          1           0        0.613064    1.678359   -0.957838
     45          1           0       -0.377081    1.551978   -3.233745
     46          1           0       -2.624471    2.516381   -3.674920
     47          1           0       -3.846556    3.671526   -1.843922
     48          1           0       -2.800799    3.891504    0.390829
     49          8           0        0.258544    1.843452    1.653403
     50          1           0       -0.290650    1.060883    1.344872
     51          6           0        2.441513    0.628658    1.189305
     52          8           0        2.099143    0.199844    0.101285
     53          8           0        2.248933   -0.019964    2.327590
     54          1           0        1.531183   -0.703188    2.224247
     55          6           0        3.189537    1.928100    1.375785
     56          1           0        2.682688    2.468972    2.180868
     57          1           0        4.199793    1.693929    1.739560
     58          6           0       -0.381215    3.005936    1.215389
     59          1           0       -1.156411    3.339330    1.924814
     60          1           0        0.380160    3.800000    1.185291
     61          6           0       -1.612188   -0.121187    3.680629
     62          1           0       -0.881221    0.690002    3.638330
     63          1           0       -2.626880    0.269226    3.581214
     64          1           0       -1.505482   -0.697824    4.600341
     65          6           0        3.245219    2.761131    0.100984
     66          1           0        3.667539    2.159391   -0.712830
     67          1           0        2.221638    3.003581   -0.206499
     68          6           0        4.054481    4.042147    0.278977
     69          1           0        4.099962    4.616186   -0.651053
     70          1           0        3.610833    4.683521    1.047736
     71          1           0        5.081971    3.819102    0.586472
     72          6           0        5.112925   -1.974988   -0.549850
     73          1           0        5.706680   -1.863227    0.359613
     74          1           0        5.626518   -2.678027   -1.213427
     75          6           0        4.858732   -0.646564   -1.266292
     76          1           0        4.611176    0.125699   -0.532755
     77          1           0        5.707563   -0.304046   -1.861657
 ---------------------------------------------------------------------

 SCF Done:  E(RM062X) =  -1991.38726639     A.U. after   15 cycles

 The electronic state is 1-A.
 Alpha  occ. eigenvalues --  -90.10309 -19.63428 -19.60119 -19.59079 -19.58491
 Alpha  occ. eigenvalues --  -19.58318 -14.84786 -14.80468 -14.69333 -10.65557
 Alpha  occ. eigenvalues --  -10.63212 -10.62409 -10.61509 -10.59116 -10.59108
 Alpha  occ. eigenvalues --  -10.58996 -10.57822 -10.57406 -10.56783 -10.56673
 Alpha  occ. eigenvalues --  -10.55995 -10.55727 -10.55560 -10.55002 -10.54939
 Alpha  occ. eigenvalues --  -10.54887 -10.54614 -10.54575 -10.54506 -10.53846
 Alpha  occ. eigenvalues --  -10.53575 -10.53572 -10.53278 -10.53235 -10.52720
 Alpha  occ. eigenvalues --  -10.52621  -8.41270  -6.33508  -6.33416  -6.33335
 Alpha  occ. eigenvalues --   -1.19167  -1.17816  -1.12925  -1.10208  -1.09893
 Alpha  occ. eigenvalues --   -1.09112  -1.06086  -0.97525  -0.95295  -0.94766
 Alpha  occ. eigenvalues --   -0.92184  -0.89835  -0.88565  -0.88185  -0.85044
 Alpha  occ. eigenvalues --   -0.84909  -0.83666  -0.83512  -0.83298  -0.80128
 Alpha  occ. eigenvalues --   -0.79249  -0.76330  -0.75635  -0.74678  -0.70935
 Alpha  occ. eigenvalues --   -0.70214  -0.69185  -0.68692  -0.68345  -0.68046
 Alpha  occ. eigenvalues --   -0.65887  -0.64736  -0.63925  -0.63445  -0.61600
 Alpha  occ. eigenvalues --   -0.60257  -0.59374  -0.59033  -0.58349  -0.56158
 Alpha  occ. eigenvalues --   -0.55488  -0.55202  -0.55099  -0.54195  -0.53754
 Alpha  occ. eigenvalues --   -0.53444  -0.53059  -0.52507  -0.51929  -0.51688
 Alpha  occ. eigenvalues --   -0.51102  -0.50971  -0.50612  -0.50085  -0.49832
 Alpha  occ. eigenvalues --   -0.49594  -0.49536  -0.48799  -0.48329  -0.47992
 Alpha  occ. eigenvalues --   -0.47809  -0.47188  -0.47029  -0.46976  -0.45891
 Alpha  occ. eigenvalues --   -0.45699  -0.45224  -0.43943  -0.43659  -0.43439
 Alpha  occ. eigenvalues --   -0.42803  -0.42640  -0.42198  -0.42011  -0.41875
 Alpha  occ. eigenvalues --   -0.41168  -0.40892  -0.40538  -0.39893  -0.39568
 Alpha  occ. eigenvalues --   -0.39360  -0.39258  -0.38895  -0.38395  -0.37967
 Alpha  occ. eigenvalues --   -0.37317  -0.36218  -0.35821  -0.35339  -0.35141
 Alpha  occ. eigenvalues --   -0.34336  -0.33058  -0.32029  -0.31656  -0.31482
 Alpha  occ. eigenvalues --   -0.29893  -0.28863  -0.28318  -0.27393  -0.25365
 Alpha virt. eigenvalues --   -0.01033   0.00667   0.03210   0.03759   0.08981
 Alpha virt. eigenvalues --    0.10170   0.10910   0.11815   0.12958   0.13548
 Alpha virt. eigenvalues --    0.13862   0.14290   0.15003   0.15480   0.15819

 Mulliken charges:
               1
     1  C   -0.303928
     2  C   -0.304182
     3  C   -0.309623
     4  C   -0.073011
     5  C    0.064352
     6  C   -0.304961
     7  H    0.166443
     8  H    0.161039
     9  H    0.159145
    10  H    0.145716
    11  H    0.156804
    12  H    0.211826
    13  H    0.141144
    14  H    0.179441
    15  H    0.150091
    16  H    0.150079
    17  N   -0.423993
    18  C    0.098887
    19  C    0.084756
    20  C   -0.227225
    21  H    0.204712
    22  C   -0.226452
    23  H    0.263306
    24  C    0.427641
    25  H    0.187882
    26  H    0.207440
    27  N   -0.528006
    28  C   -0.158255
    29  H    0.178322
    30  H    0.198771
    31  C   -0.146456
    32  H    0.169589
    33  H    0.194844
    34  N   -0.759005
    35  S    1.249194
    36  O   -0.644719
    37  O   -0.669929
    38  C    0.049066
    39  C   -0.176424
    40  C   -0.187759
    41  C   -0.169630
    42  C   -0.161457
    43  C   -0.198853
    44  H    0.204673
    45  H    0.139190
    46  H    0.156599
    47  H    0.162028
    48  H    0.157678
    49  O   -0.715074
    50  H    0.483674
    51  C    0.653865
    52  O   -0.521765
    53  O   -0.646614
    54  H    0.485266
    55  C   -0.370364
    56  H    0.202246
    57  H    0.165009
    58  C   -0.064339
    59  H    0.127499
    60  H    0.151637
    61  C   -0.659418
    62  H    0.223396
    63  H    0.187071
    64  H    0.207030
    65  C   -0.288523
    66  H    0.144942
    67  H    0.163232
    68  C   -0.480340
    69  H    0.159002
    70  H    0.158415
    71  H    0.151234
    72  C   -0.336998
    73  H    0.184403
    74  H    0.169921
    75  C   -0.335863
    76  H    0.181618
    77  H    0.173049
 Sum of Mulliken charges =  -0.00000

 Dipole moment (field-independent basis, Debye):
    X=              1.5457    Y=             -0.2641    Z=             -6.6172  Tot=              6.8004
 Quadrupole moment (field-independent basis, Debye-Ang):
   XX=           -198.9138   YY=           -222.5874   ZZ=           -222.4055
   XY=            -11.7237   XZ=             -0.4218   YZ=             12.5992

 Normal termination of Gaussian 16 at Thu Feb  7 23:18:06 2019.
