 Gaussian 16, Revision A.03,
 Gaussian 16:  ES64L-G16RevA.03 25-Dec-2016

 ------------------------------------------
 #p M062X/6-31G* em=gd3 force int=ultrafine
 ------------------------------------------

 -----
 Title
 -----
 Symbolic Z-matrix:
 Charge =  0 Multiplicity = 1

                         Standard orientation:
 ---------------------------------------------------------------------
 Center     Atomic      Atomic             Coordinates (Angstroms)
 Number     Number       Type             X           Y           Z
 ---------------------------------------------------------------------
      1          6           0       -4.845564    0.538547   -0.521345
      2          6           0       -5.020518   -0.729066   -1.362701
      3          6           0       -3.679752   -1.180168   -1.954826
      4          6           0       -2.693181   -1.435028   -0.819637
      5          6           0       -2.489045   -0.152889    0.023362
      6          6           0       -3.824127    0.328841    0.599479
      7          1           0       -3.795024   -2.082446   -2.564750
      8          1           0       -5.429659   -1.533063   -0.736898
      9          1           0       -5.737732   -0.556429   -2.171138
     10          1           0       -4.500042    1.355535   -1.169609
     11          1           0       -5.807197    0.847101   -0.098955
     12          1           0       -3.085971   -2.222468   -0.168216
     13          1           0       -2.129341    0.622054   -0.666220
     14          1           0       -4.196694   -0.405101    1.322474
     15          1           0       -3.640728    1.268837    1.132724
     16          1           0       -3.308045   -0.377941   -2.606415
     17          7           0       -1.362871   -1.903960   -1.263866
     18          6           0       -0.677457   -1.230563   -2.225397
     19          6           0       -0.669121   -2.723486   -0.430446
     20          6           0        0.673464   -1.325549   -2.360203
     21          1           0       -1.265032   -0.585604   -2.865821
     22          6           0        0.683468   -2.858925   -0.493345
     23          1           0       -1.255220   -3.226772    0.330666
     24          6           0        1.433381   -2.074245   -1.412335
     25          1           0        1.160973   -0.761724   -3.144429
     26          1           0        1.166552   -3.483265    0.244902
     27          7           0        2.761306   -2.050239   -1.389437
     28          6           0        3.501192   -2.584335   -0.235316
     29          1           0        3.354392   -3.664728   -0.148183
     30          1           0        3.137077   -2.072223    0.666432
     31          6           0        3.534171   -1.000988   -2.076684
     32          1           0        3.786359   -1.329392   -3.092773
     33          1           0        2.946302   -0.080928   -2.101880
     34          7           0       -1.406649   -0.305393    0.978528
     35         16           0       -1.440268   -1.209265    2.333511
     36          8           0       -2.664092   -2.013153    2.292038
     37          8           0       -0.161468   -1.907380    2.471698
     38          6           0       -0.548804    2.694529   -0.059036
     39          6           0       -0.038441    2.074473   -1.207172
     40          6           0       -0.731510    2.160105   -2.414108
     41          6           0       -1.949800    2.835035   -2.492857
     42          6           0       -2.470491    3.438413   -1.349456
     43          6           0       -1.769393    3.369670   -0.145850
     44          1           0        0.877784    1.489735   -1.113349
     45          1           0       -0.313364    1.696410   -3.305556
     46          1           0       -2.485322    2.897224   -3.436114
     47          1           0       -3.419817    3.964909   -1.395185
     48          1           0       -2.180611    3.844575    0.742774
     49          8           0        0.630695    1.350763    1.637966
     50          1           0       -0.547110    0.280983    0.925919
     51          6           0        2.055776    0.724274    1.199573
     52          8           0        1.949902    0.179113    0.045357
     53          8           0        2.230660   -0.156454    2.281369
     54          1           0        1.557511   -0.851470    2.164158
     55          6           0        3.099275    1.840619    1.373608
     56          1           0        2.824276    2.488809    2.214844
     57          1           0        4.029713    1.339340    1.671067
     58          6           0        0.197998    2.627404    1.267635
     59          1           0       -0.485630    2.989547    2.052389
     60          1           0        1.034530    3.341593    1.247130
     61          6           0       -1.505301   -0.030343    3.664656
     62          1           0       -0.629306    0.612330    3.530653
     63          1           0       -2.436162    0.533035    3.583974
     64          1           0       -1.456518   -0.578964    4.606488
     65          6           0        3.358269    2.652940    0.107267
     66          1           0        3.711128    1.975007   -0.678243
     67          1           0        2.425925    3.080651   -0.280096
     68          6           0        4.373239    3.769110    0.341256
     69          1           0        4.577552    4.331532   -0.575067
     70          1           0        4.008353    4.476725    1.094274
     71          1           0        5.322977    3.363593    0.707492
     72          6           0        4.943958   -2.198024   -0.539193
     73          1           0        5.555096   -2.168597    0.364771
     74          1           0        5.390576   -2.912824   -1.239569
     75          6           0        4.771713   -0.826778   -1.193988
     76          1           0        4.527761   -0.089799   -0.423574
     77          1           0        5.645473   -0.494975   -1.758914
 ---------------------------------------------------------------------

 SCF Done:  E(RM062X) =  -1991.35545354     A.U. after   15 cycles

 The electronic state is 1-A.
 Alpha  occ. eigenvalues --  -90.14629 -19.62307 -19.61980 -19.58343 -19.57321
 Alpha  occ. eigenvalues --  -19.51055 -14.85174 -14.80080 -14.76226 -10.63174
 Alpha  occ. eigenvalues --  -10.62608 -10.62436 -10.62123 -10.61045 -10.59788
 Alpha  occ. eigenvalues --  -10.57827 -10.57764 -10.57730 -10.56979 -10.56952
 Alpha  occ. eigenvalues --  -10.56849 -10.56363 -10.55840 -10.55099 -10.55047
 Alpha  occ. eigenvalues --  -10.55022 -10.54873 -10.54728 -10.54660 -10.54658
 Alpha  occ. eigenvalues --  -10.54400 -10.54109 -10.53110 -10.51128 -10.51028
 Alpha  occ. eigenvalues --  -10.49693  -8.45606  -6.37832  -6.37780  -6.37658
 Alpha  occ. eigenvalues --   -1.22432  -1.13440  -1.12789  -1.10630  -1.08912
 Alpha  occ. eigenvalues --   -1.05991  -1.02277  -1.00538  -0.95802  -0.95182
 Alpha  occ. eigenvalues --   -0.93472  -0.90114  -0.88582  -0.86474  -0.85443
 Alpha  occ. eigenvalues --   -0.84841  -0.84834  -0.83772  -0.83297  -0.83003
 Alpha  occ. eigenvalues --   -0.76568  -0.76082  -0.75567  -0.74074  -0.73196
 Alpha  occ. eigenvalues --   -0.71733  -0.68220  -0.68114  -0.67761  -0.67471
 Alpha  occ. eigenvalues --   -0.66402  -0.65461  -0.64870  -0.63332  -0.60512
 Alpha  occ. eigenvalues --   -0.60358  -0.59940  -0.59377  -0.57946  -0.57678
 Alpha  occ. eigenvalues --   -0.57165  -0.56363  -0.55613  -0.55018  -0.54361
 Alpha  occ. eigenvalues --   -0.53537  -0.53015  -0.52628  -0.52399  -0.52117
 Alpha  occ. eigenvalues --   -0.51648  -0.50855  -0.50141  -0.49950  -0.49401
 Alpha  occ. eigenvalues --   -0.49224  -0.48894  -0.48513  -0.48193  -0.48042
 Alpha  occ. eigenvalues --   -0.47696  -0.47636  -0.47138  -0.46278  -0.45871
 Alpha  occ. eigenvalues --   -0.45368  -0.45176  -0.44385  -0.44124  -0.43183
 Alpha  occ. eigenvalues --   -0.42466  -0.42328  -0.41215  -0.40920  -0.40761
 Alpha  occ. eigenvalues --   -0.40628  -0.40410  -0.40157  -0.39871  -0.39444
 Alpha  occ. eigenvalues --   -0.39068  -0.38972  -0.38718  -0.38261  -0.37710
 Alpha  occ. eigenvalues --   -0.37479  -0.36547  -0.36434  -0.35992  -0.35036
 Alpha  occ. eigenvalues --   -0.34596  -0.34302  -0.31967  -0.31189  -0.29983
 Alpha  occ. eigenvalues --   -0.29207  -0.28771  -0.27808  -0.24611  -0.24207
 Alpha virt. eigenvalues --   -0.01245   0.00575   0.03228   0.03633   0.10187
 Alpha virt. eigenvalues --    0.10611   0.11379   0.12544   0.13174   0.13329
 Alpha virt. eigenvalues --    0.14175   0.14397   0.15085   0.15531   0.15542

 Mulliken charges:
               1
     1  C   -0.306621
     2  C   -0.307779
     3  C   -0.311607
     4  C   -0.060917
     5  C    0.065957
     6  C   -0.306874
     7  H    0.175239
     8  H    0.163207
     9  H    0.166669
    10  H    0.151986
    11  H    0.164727
    12  H    0.207923
    13  H    0.173980
    14  H    0.191697
    15  H    0.160183
    16  H    0.156729
    17  N   -0.437120
    18  C    0.081539
    19  C    0.082198
    20  C   -0.211952
    21  H    0.202931
    22  C   -0.222065
    23  H    0.244412
    24  C    0.448511
    25  H    0.192110
    26  H    0.209659
    27  N   -0.518772
    28  C   -0.163597
    29  H    0.167624
    30  H    0.219244
    31  C   -0.145200
    32  H    0.160743
    33  H    0.205430
    34  N   -0.814129
    35  S    1.237136
    36  O   -0.604675
    37  O   -0.592520
    38  C    0.049458
    39  C   -0.198079
    40  C   -0.192802
    41  C   -0.172652
    42  C   -0.165030
    43  C   -0.205471
    44  H    0.235574
    45  H    0.140848
    46  H    0.156163
    47  H    0.159810
    48  H    0.154436
    49  O   -0.609411
    50  H    0.452368
    51  C    0.712886
    52  O   -0.678628
    53  O   -0.698555
    54  H    0.433697
    55  C   -0.339187
    56  H    0.145364
    57  H    0.151009
    58  C   -0.076770
    59  H    0.128458
    60  H    0.155098
    61  C   -0.666500
    62  H    0.265498
    63  H    0.200314
    64  H    0.223183
    65  C   -0.285358
    66  H    0.143333
    67  H    0.141298
    68  C   -0.475335
    69  H    0.148663
    70  H    0.149134
    71  H    0.148848
    72  C   -0.334388
    73  H    0.184205
    74  H    0.160448
    75  C   -0.338588
    76  H    0.205705
    77  H    0.164947
 Sum of Mulliken charges =  -0.00000

 Dipole moment (field-independent basis, Debye):
    X=             -3.4024    Y=             -1.4670    Z=             -5.7448  Tot=              6.8360
 Quadrupole moment (field-independent basis, Debye-Ang):
   XX=           -208.0175   YY=           -223.0014   ZZ=           -218.0501
   XY=            -13.6321   XZ=             -4.3504   YZ=             10.7844

 Normal termination of Gaussian 16 at Thu Feb  7 09:03:25 2019.
