 Gaussian 16, Revision A.03,
 Gaussian 16:  ES64L-G16RevA.03 25-Dec-2016

 ------------------------------------------
 #p M062X/6-31G* em=gd3 force int=ultrafine
 ------------------------------------------

 -----
 Title
 -----
 Symbolic Z-matrix:
 Charge =  0 Multiplicity = 1

                         Standard orientation:
 ---------------------------------------------------------------------
 Center     Atomic      Atomic             Coordinates (Angstroms)
 Number     Number       Type             X           Y           Z
 ---------------------------------------------------------------------
      1          6           0       -4.866819    0.045736   -0.419567
      2          6           0       -4.894187   -1.233889   -1.261008
      3          6           0       -3.510604   -1.527006   -1.853556
      4          6           0       -2.505371   -1.650573   -0.713238
      5          6           0       -2.419899   -0.331423    0.105659
      6          6           0       -3.809772   -0.029275    0.686336
      7          1           0       -3.522513   -2.443094   -2.455232
      8          1           0       -5.204081   -2.080344   -0.634128
      9          1           0       -5.628731   -1.148068   -2.068469
     10          1           0       -4.633941    0.897345   -1.074237
     11          1           0       -5.856646    0.232674    0.010436
     12          1           0       -2.812807   -2.458584   -0.044224
     13          1           0       -2.212267    0.454891   -0.635084
     14          1           0       -4.072623   -0.805860    1.415888
     15          1           0       -3.748291    0.926813    1.220365
     16          1           0       -3.238495   -0.692344   -2.514424
     17          7           0       -1.136793   -2.002313   -1.157488
     18          6           0       -0.529658   -1.305763   -2.145396
     19          6           0       -0.377715   -2.759701   -0.330940
     20          6           0        0.823622   -1.326851   -2.325235
     21          1           0       -1.176549   -0.706610   -2.773211
     22          6           0        0.981355   -2.827285   -0.445432
     23          1           0       -0.909898   -3.267313    0.466368
     24          6           0        1.649185   -2.029080   -1.404398
     25          1           0        1.251455   -0.753481   -3.137035
     26          1           0        1.522056   -3.408762    0.288085
     27          7           0        2.985125   -1.928692   -1.425805
     28          6           0        3.789914   -2.438538   -0.309013
     29          1           0        3.737174   -3.530223   -0.259837
     30          1           0        3.404189   -2.018742    0.630669
     31          6           0        3.673123   -0.840128   -2.136043
     32          1           0        3.928315   -1.155551   -3.155241
     33          1           0        3.027694    0.041322   -2.173457
     34          7           0       -1.297351   -0.286362    1.020815
     35         16           0       -1.257380   -1.239289    2.279400
     36          8           0       -2.241281   -2.343916    2.236062
     37          8           0        0.143338   -1.681741    2.520454
     38          6           0       -1.179264    2.848179   -0.175057
     39          6           0       -0.424741    2.197689   -1.156564
     40          6           0       -0.926074    2.074495   -2.450836
     41          6           0       -2.192472    2.562073   -2.773080
     42          6           0       -2.954885    3.190970   -1.790569
     43          6           0       -2.445091    3.334821   -0.502450
     44          1           0        0.529908    1.750034   -0.886092
     45          1           0       -0.324611    1.586999   -3.214854
     46          1           0       -2.583292    2.455440   -3.780711
     47          1           0       -3.946762    3.566767   -2.024550
     48          1           0       -3.042745    3.820168    0.266409
     49          8           0        0.199061    1.947762    1.610729
     50          1           0       -0.276257    1.103562    1.357904
     51          6           0        2.434772    0.663063    1.248492
     52          8           0        2.139629    0.218303    0.152047
     53          8           0        2.178136    0.043153    2.387518
     54          1           0        1.494989   -0.672942    2.261663
     55          6           0        3.189509    1.956157    1.449449
     56          1           0        2.724405    2.471216    2.294771
     57          1           0        4.216223    1.706217    1.753914
     58          6           0       -0.639882    3.000667    1.232797
     59          1           0       -1.489351    3.119719    1.926743
     60          1           0       -0.046169    3.923779    1.299091
     61          6           0       -1.650579   -0.232381    3.706645
     62          1           0       -0.958599    0.613429    3.702726
     63          1           0       -2.681692    0.112364    3.606655
     64          1           0       -1.528579   -0.833594    4.608639
     65          6           0        3.187152    2.831202    0.203053
     66          1           0        3.608149    2.270091   -0.640146
     67          1           0        2.146337    3.047067   -0.062754
     68          6           0        3.956896    4.132267    0.407797
     69          1           0        3.950295    4.745428   -0.497967
     70          1           0        3.514802    4.723845    1.216323
     71          1           0        5.001513    3.936829    0.673810
     72          6           0        5.193662   -1.924953   -0.617279
     73          1           0        5.803468   -1.840857    0.284441
     74          1           0        5.698837   -2.602604   -1.313289
     75          6           0        4.918088   -0.575508   -1.285005
     76          1           0        4.666868    0.168783   -0.523617
     77          1           0        5.756797   -0.203895   -1.877240
 ---------------------------------------------------------------------

 SCF Done:  E(RM062X) =  -1991.38998015     A.U. after   15 cycles

 The electronic state is 1-A.
 Alpha  occ. eigenvalues --  -90.10385 -19.63381 -19.60097 -19.59308 -19.58614
 Alpha  occ. eigenvalues --  -19.58368 -14.84814 -14.80524 -14.69422 -10.65449
 Alpha  occ. eigenvalues --  -10.63241 -10.62391 -10.61521 -10.59154 -10.59111
 Alpha  occ. eigenvalues --  -10.59028 -10.57818 -10.57429 -10.56845 -10.56650
 Alpha  occ. eigenvalues --  -10.56070 -10.55770 -10.55497 -10.54964 -10.54914
 Alpha  occ. eigenvalues --  -10.54856 -10.54576 -10.54538 -10.54488 -10.53768
 Alpha  occ. eigenvalues --  -10.53745 -10.53557 -10.53133 -10.52976 -10.52633
 Alpha  occ. eigenvalues --  -10.52531  -8.41351  -6.33589  -6.33496  -6.33416
 Alpha  occ. eigenvalues --   -1.19126  -1.17924  -1.12946  -1.10330  -1.09849
 Alpha  occ. eigenvalues --   -1.09163  -1.06191  -0.97552  -0.95250  -0.94821
 Alpha  occ. eigenvalues --   -0.92190  -0.89859  -0.88595  -0.88015  -0.85015
 Alpha  occ. eigenvalues --   -0.84961  -0.83648  -0.83505  -0.83302  -0.80210
 Alpha  occ. eigenvalues --   -0.79104  -0.76364  -0.75667  -0.74668  -0.70946
 Alpha  occ. eigenvalues --   -0.70192  -0.69055  -0.68735  -0.68367  -0.67992
 Alpha  occ. eigenvalues --   -0.65755  -0.64724  -0.63954  -0.63430  -0.61645
 Alpha  occ. eigenvalues --   -0.60277  -0.59404  -0.58958  -0.58365  -0.56174
 Alpha  occ. eigenvalues --   -0.55462  -0.55158  -0.55062  -0.54043  -0.53666
 Alpha  occ. eigenvalues --   -0.53436  -0.53082  -0.52356  -0.51977  -0.51728
 Alpha  occ. eigenvalues --   -0.51161  -0.51005  -0.50611  -0.50216  -0.49830
 Alpha  occ. eigenvalues --   -0.49616  -0.49450  -0.48846  -0.48363  -0.48005
 Alpha  occ. eigenvalues --   -0.47765  -0.47170  -0.46972  -0.46907  -0.45947
 Alpha  occ. eigenvalues --   -0.45860  -0.45250  -0.43962  -0.43650  -0.43420
 Alpha  occ. eigenvalues --   -0.42756  -0.42438  -0.42265  -0.41914  -0.41888
 Alpha  occ. eigenvalues --   -0.41158  -0.40832  -0.40587  -0.39923  -0.39519
 Alpha  occ. eigenvalues --   -0.39371  -0.39185  -0.38726  -0.38377  -0.37812
 Alpha  occ. eigenvalues --   -0.37354  -0.36258  -0.35912  -0.35375  -0.35107
 Alpha  occ. eigenvalues --   -0.34413  -0.33147  -0.32110  -0.31705  -0.31507
 Alpha  occ. eigenvalues --   -0.29837  -0.28887  -0.28321  -0.27521  -0.25435
 Alpha virt. eigenvalues --   -0.01022   0.00645   0.03330   0.03810   0.09093
 Alpha virt. eigenvalues --    0.10130   0.10937   0.11764   0.13007   0.13432
 Alpha virt. eigenvalues --    0.13828   0.14212   0.15184   0.15521   0.15740

 Mulliken charges:
               1
     1  C   -0.303968
     2  C   -0.304198
     3  C   -0.309787
     4  C   -0.073440
     5  C    0.062071
     6  C   -0.305261
     7  H    0.165821
     8  H    0.160898
     9  H    0.159174
    10  H    0.146609
    11  H    0.156638
    12  H    0.213101
    13  H    0.141466
    14  H    0.179799
    15  H    0.148818
    16  H    0.151166
    17  N   -0.424610
    18  C    0.100450
    19  C    0.084273
    20  C   -0.228000
    21  H    0.205473
    22  C   -0.227264
    23  H    0.264200
    24  C    0.428578
    25  H    0.188275
    26  H    0.206787
    27  N   -0.529360
    28  C   -0.157021
    29  H    0.178422
    30  H    0.199093
    31  C   -0.147327
    32  H    0.169522
    33  H    0.196370
    34  N   -0.755009
    35  S    1.249259
    36  O   -0.646989
    37  O   -0.670687
    38  C    0.048905
    39  C   -0.177181
    40  C   -0.186991
    41  C   -0.170072
    42  C   -0.162384
    43  C   -0.197462
    44  H    0.201826
    45  H    0.139565
    46  H    0.156425
    47  H    0.161771
    48  H    0.156338
    49  O   -0.710338
    50  H    0.480369
    51  C    0.644256
    52  O   -0.523640
    53  O   -0.644181
    54  H    0.485662
    55  C   -0.366915
    56  H    0.199869
    57  H    0.163893
    58  C   -0.069022
    59  H    0.128815
    60  H    0.160451
    61  C   -0.655718
    62  H    0.218258
    63  H    0.188236
    64  H    0.208156
    65  C   -0.286944
    66  H    0.143106
    67  H    0.168051
    68  C   -0.480444
    69  H    0.158297
    70  H    0.158674
    71  H    0.149695
    72  C   -0.337444
    73  H    0.183962
    74  H    0.170084
    75  C   -0.335599
    76  H    0.182969
    77  H    0.173362
 Sum of Mulliken charges =  -0.00000

 Dipole moment (field-independent basis, Debye):
    X=              1.5703    Y=             -0.4156    Z=             -6.4905  Tot=              6.6907
 Quadrupole moment (field-independent basis, Debye-Ang):
   XX=           -197.8053   YY=           -223.5890   ZZ=           -221.6250
   XY=            -12.1484   XZ=             -1.4552   YZ=             12.2844

 Normal termination of Gaussian 16 at Fri Feb  8 01:06:35 2019.
