 Gaussian 16, Revision A.03,
 Gaussian 16:  ES64L-G16RevA.03 25-Dec-2016

 ------------------------------------------
 #p M062X/6-31G* em=gd3 force int=ultrafine
 ------------------------------------------

 -----
 Title
 -----
 Symbolic Z-matrix:
 Charge =  0 Multiplicity = 1

                         Standard orientation:
 ---------------------------------------------------------------------
 Center     Atomic      Atomic             Coordinates (Angstroms)
 Number     Number       Type             X           Y           Z
 ---------------------------------------------------------------------
      1          6           0       -4.786510    0.446689   -0.518280
      2          6           0       -4.990326   -0.848044   -1.310808
      3          6           0       -3.671827   -1.318343   -1.937496
      4          6           0       -2.649841   -1.525139   -0.825751
      5          6           0       -2.402157   -0.206868   -0.048063
      6          6           0       -3.716756    0.285835    0.566643
      7          1           0       -3.807367   -2.245434   -2.504643
      8          1           0       -5.372750   -1.632379   -0.644441
      9          1           0       -5.739065   -0.702321   -2.095711
     10          1           0       -4.479067    1.243593   -1.208080
     11          1           0       -5.731602    0.761380   -0.063884
     12          1           0       -3.025477   -2.277110   -0.125107
     13          1           0       -2.084719    0.542514   -0.784404
     14          1           0       -4.057758   -0.425764    1.326050
     15          1           0       -3.524192    1.245294    1.058542
     16          1           0       -3.325924   -0.544042   -2.635563
     17          7           0       -1.333331   -2.018245   -1.281654
     18          6           0       -0.650585   -1.339440   -2.242154
     19          6           0       -0.634673   -2.811340   -0.426009
     20          6           0        0.704772   -1.393615   -2.345430
     21          1           0       -1.245764   -0.719153   -2.900995
     22          6           0        0.722290   -2.902356   -0.454968
     23          1           0       -1.222059   -3.312928    0.335519
     24          6           0        1.461760   -2.090040   -1.355851
     25          1           0        1.192828   -0.825844   -3.125989
     26          1           0        1.210242   -3.493873    0.306564
     27          7           0        2.783563   -1.986764   -1.280061
     28          6           0        3.518329   -2.443357   -0.090491
     29          1           0        3.400540   -3.521800    0.046202
     30          1           0        3.126030   -1.899677    0.781545
     31          6           0        3.509925   -0.914965   -1.975657
     32          1           0        3.752598   -1.228944   -2.998301
     33          1           0        2.880691   -0.021082   -1.994633
     34          7           0       -1.278023   -0.304173    0.870030
     35         16           0       -1.323662   -1.146546    2.266067
     36          8           0       -2.531695   -1.977532    2.260832
     37          8           0       -0.035296   -1.819147    2.450464
     38          6           0       -0.586924    2.681380    0.012401
     39          6           0       -0.115036    2.182166   -1.211963
     40          6           0       -0.895889    2.268697   -2.363085
     41          6           0       -2.165229    2.846065   -2.325502
     42          6           0       -2.647094    3.340544   -1.116677
     43          6           0       -1.860110    3.258505    0.032408
     44          1           0        0.842478    1.673532   -1.229802
     45          1           0       -0.502602    1.887396   -3.303305
     46          1           0       -2.767475    2.916192   -3.227137
     47          1           0       -3.632534    3.795515   -1.066295
     48          1           0       -2.244779    3.658403    0.968599
     49          8           0        0.715577    1.545381    1.873602
     50          1           0       -0.300387   -0.060749    0.552358
     51          6           0        1.864929    0.820589    1.243159
     52          8           0        1.471839    0.210498    0.144819
     53          8           0        2.243736   -0.060047    2.285426
     54          1           0        1.551612   -0.745338    2.300882
     55          6           0        3.060623    1.802148    1.132411
     56          1           0        3.000932    2.518467    1.962407
     57          1           0        3.960525    1.204808    1.326575
     58          6           0        0.248257    2.732658    1.296083
     59          1           0       -0.387888    3.195038    2.062273
     60          1           0        1.080043    3.434298    1.132775
     61          6           0       -1.458908    0.071351    3.553629
     62          1           0       -0.585569    0.720978    3.448415
     63          1           0       -2.388960    0.622433    3.403790
     64          1           0       -1.467082   -0.455647    4.509133
     65          6           0        3.239570    2.538652   -0.192066
     66          1           0        3.321041    1.806393   -1.004409
     67          1           0        2.360432    3.145458   -0.434462
     68          6           0        4.476007    3.435979   -0.170840
     69          1           0        4.621758    3.952029   -1.124829
     70          1           0        4.388731    4.197745    0.612656
     71          1           0        5.379973    2.852835    0.041088
     72          6           0        4.953893   -2.037253   -0.403342
     73          1           0        5.560117   -1.954515    0.500476
     74          1           0        5.418414   -2.771926   -1.070347
     75          6           0        4.760837   -0.698332   -1.118872
     76          1           0        4.544555    0.075574   -0.377879
     77          1           0        5.623356   -0.388539   -1.712627
 ---------------------------------------------------------------------

 SCF Done:  E(RM062X) =  -1991.35832662     A.U. after   14 cycles

 The electronic state is 1-A.
 Alpha  occ. eigenvalues --  -90.14220 -19.61819 -19.61793 -19.58661 -19.56682
 Alpha  occ. eigenvalues --  -19.51202 -14.85185 -14.80441 -14.75848 -10.63422
 Alpha  occ. eigenvalues --  -10.62789 -10.62219 -10.62217 -10.60752 -10.59388
 Alpha  occ. eigenvalues --  -10.58408 -10.58003 -10.57967 -10.57174 -10.56895
 Alpha  occ. eigenvalues --  -10.56705 -10.55674 -10.55622 -10.55104 -10.54848
 Alpha  occ. eigenvalues --  -10.54811 -10.54800 -10.54734 -10.54583 -10.54408
 Alpha  occ. eigenvalues --  -10.54346 -10.54330 -10.53061 -10.51485 -10.51441
 Alpha  occ. eigenvalues --  -10.49675  -8.45196  -6.37414  -6.37390  -6.37232
 Alpha  occ. eigenvalues --   -1.22042  -1.13593  -1.13464  -1.10297  -1.09343
 Alpha  occ. eigenvalues --   -1.05853  -1.01785  -0.99282  -0.95763  -0.94996
 Alpha  occ. eigenvalues --   -0.93507  -0.90311  -0.88759  -0.85938  -0.85745
 Alpha  occ. eigenvalues --   -0.84827  -0.84723  -0.84217  -0.83060  -0.82722
 Alpha  occ. eigenvalues --   -0.76675  -0.76243  -0.75830  -0.74346  -0.72819
 Alpha  occ. eigenvalues --   -0.71668  -0.68329  -0.68219  -0.67939  -0.67228
 Alpha  occ. eigenvalues --   -0.66734  -0.65239  -0.64863  -0.63530  -0.60547
 Alpha  occ. eigenvalues --   -0.60405  -0.59776  -0.59075  -0.57804  -0.57609
 Alpha  occ. eigenvalues --   -0.57191  -0.56444  -0.55795  -0.55166  -0.54204
 Alpha  occ. eigenvalues --   -0.53565  -0.52669  -0.52479  -0.52460  -0.51904
 Alpha  occ. eigenvalues --   -0.51554  -0.51010  -0.50704  -0.49887  -0.49534
 Alpha  occ. eigenvalues --   -0.49163  -0.48849  -0.48208  -0.48139  -0.47991
 Alpha  occ. eigenvalues --   -0.47686  -0.47473  -0.46922  -0.46420  -0.46104
 Alpha  occ. eigenvalues --   -0.44886  -0.44740  -0.44158  -0.43857  -0.43266
 Alpha  occ. eigenvalues --   -0.42529  -0.42150  -0.41387  -0.41294  -0.41095
 Alpha  occ. eigenvalues --   -0.40906  -0.40494  -0.39992  -0.39796  -0.39285
 Alpha  occ. eigenvalues --   -0.39251  -0.39076  -0.38433  -0.37986  -0.37608
 Alpha  occ. eigenvalues --   -0.37386  -0.36750  -0.36549  -0.35766  -0.34914
 Alpha  occ. eigenvalues --   -0.34394  -0.33987  -0.31664  -0.31126  -0.29777
 Alpha  occ. eigenvalues --   -0.28875  -0.28606  -0.27661  -0.24788  -0.24368
 Alpha virt. eigenvalues --   -0.01529   0.00394   0.03542   0.03747   0.10132
 Alpha virt. eigenvalues --    0.10968   0.11644   0.12226   0.13164   0.13490
 Alpha virt. eigenvalues --    0.14221   0.14561   0.14756   0.15221   0.15599

 Mulliken charges:
               1
     1  C   -0.306283
     2  C   -0.307177
     3  C   -0.309170
     4  C   -0.060256
     5  C    0.056403
     6  C   -0.311329
     7  H    0.174066
     8  H    0.162884
     9  H    0.165586
    10  H    0.150967
    11  H    0.163460
    12  H    0.209099
    13  H    0.173199
    14  H    0.193260
    15  H    0.163569
    16  H    0.154350
    17  N   -0.430685
    18  C    0.067339
    19  C    0.064039
    20  C   -0.201562
    21  H    0.206352
    22  C   -0.209355
    23  H    0.245063
    24  C    0.445831
    25  H    0.192160
    26  H    0.211485
    27  N   -0.525834
    28  C   -0.170558
    29  H    0.169760
    30  H    0.228881
    31  C   -0.154777
    32  H    0.165311
    33  H    0.206339
    34  N   -0.815077
    35  S    1.252901
    36  O   -0.611597
    37  O   -0.605665
    38  C    0.083818
    39  C   -0.184998
    40  C   -0.189890
    41  C   -0.171337
    42  C   -0.163750
    43  C   -0.212013
    44  H    0.212543
    45  H    0.140486
    46  H    0.154934
    47  H    0.158596
    48  H    0.152459
    49  O   -0.551179
    50  H    0.448042
    51  C    0.723910
    52  O   -0.721570
    53  O   -0.717936
    54  H    0.444128
    55  C   -0.338373
    56  H    0.148541
    57  H    0.151226
    58  C   -0.090810
    59  H    0.139643
    60  H    0.147895
    61  C   -0.663385
    62  H    0.274190
    63  H    0.196390
    64  H    0.217688
    65  C   -0.292033
    66  H    0.134867
    67  H    0.146167
    68  C   -0.473157
    69  H    0.148880
    70  H    0.154108
    71  H    0.145314
    72  C   -0.331955
    73  H    0.187011
    74  H    0.162884
    75  C   -0.343031
    76  H    0.197725
    77  H    0.170993
 Sum of Mulliken charges =  -0.00000

 Dipole moment (field-independent basis, Debye):
    X=             -2.6175    Y=             -1.9597    Z=             -6.3288  Tot=              7.1236
 Quadrupole moment (field-independent basis, Debye-Ang):
   XX=           -205.8841   YY=           -222.6045   ZZ=           -219.9968
   XY=            -12.4617   XZ=             -5.2459   YZ=             10.0685

 Normal termination of Gaussian 16 at Thu Feb  7 14:25:00 2019.
