 Gaussian 16, Revision A.03,
 Gaussian 16:  ES64L-G16RevA.03 25-Dec-2016

 ------------------------------------------
 #p M062X/6-31G* em=gd3 force int=ultrafine
 ------------------------------------------

 -----
 Title
 -----
 Symbolic Z-matrix:
 Charge =  0 Multiplicity = 1

                         Standard orientation:
 ---------------------------------------------------------------------
 Center     Atomic      Atomic             Coordinates (Angstroms)
 Number     Number       Type             X           Y           Z
 ---------------------------------------------------------------------
      1          6           0       -4.811079    0.463928   -0.521072
      2          6           0       -5.014676   -0.846892   -1.286901
      3          6           0       -3.695543   -1.330611   -1.901288
      4          6           0       -2.673471   -1.514764   -0.785330
      5          6           0       -2.428772   -0.182224   -0.033030
      6          6           0       -3.743916    0.323721    0.569497
      7          1           0       -3.829997   -2.269106   -2.449576
      8          1           0       -5.399159   -1.616880   -0.605172
      9          1           0       -5.761701   -0.717153   -2.076262
     10          1           0       -4.501386    1.246294   -1.226656
     11          1           0       -5.756924    0.788677   -0.075421
     12          1           0       -3.047563   -2.254494   -0.070733
     13          1           0       -2.109826    0.552965   -0.782916
     14          1           0       -4.087309   -0.371688    1.342436
     15          1           0       -3.551089    1.292569    1.042781
     16          1           0       -3.348643   -0.570942   -2.614714
     17          7           0       -1.357357   -2.014522   -1.234819
     18          6           0       -0.677046   -1.354093   -2.210013
     19          6           0       -0.658095   -2.800335   -0.373352
     20          6           0        0.676705   -1.421876   -2.324685
     21          1           0       -1.272332   -0.736741   -2.871335
     22          6           0        0.697467   -2.905966   -0.414936
     23          1           0       -1.242461   -3.284525    0.401584
     24          6           0        1.436872   -2.116359   -1.336308
     25          1           0        1.163077   -0.867679   -3.116126
     26          1           0        1.186814   -3.491117    0.350583
     27          7           0        2.760758   -2.032327   -1.279356
     28          6           0        3.502565   -2.499252   -0.098337
     29          1           0        3.374574   -3.576792    0.036969
     30          1           0        3.124988   -1.952934    0.778421
     31          6           0        3.494846   -0.969808   -1.983006
     32          1           0        3.734843   -1.292670   -3.003606
     33          1           0        2.874932   -0.069463   -2.003631
     34          7           0       -1.305842   -0.258780    0.889454
     35         16           0       -1.338453   -1.082850    2.299775
     36          8           0       -2.564351   -1.885948    2.324925
     37          8           0       -0.061637   -1.780014    2.468502
     38          6           0       -0.553712    2.659677   -0.048646
     39          6           0       -0.080371    2.125131   -1.257273
     40          6           0       -0.852928    2.194415   -2.415442
     41          6           0       -2.114437    2.789429   -2.400653
     42          6           0       -2.596914    3.320439   -1.207315
     43          6           0       -1.819020    3.254926   -0.051036
     44          1           0        0.871158    1.603790   -1.253825
     45          1           0       -0.458688    1.784935   -3.343487
     46          1           0       -2.709727    2.845627   -3.307870
     47          1           0       -3.575959    3.790631   -1.174979
     48          1           0       -2.204922    3.681154    0.872995
     49          8           0        0.736229    1.536030    1.826593
     50          1           0       -0.337145   -0.026081    0.564905
     51          6           0        1.905790    0.811020    1.220525
     52          8           0        1.538282    0.196769    0.120399
     53          8           0        2.262232   -0.062578    2.276440
     54          1           0        1.566082   -0.743725    2.284070
     55          6           0        3.093425    1.802444    1.132709
     56          1           0        3.009414    2.519898    1.959952
     57          1           0        3.997859    1.217553    1.343669
     58          6           0        0.270024    2.719973    1.242489
     59          1           0       -0.376102    3.182187    2.000754
     60          1           0        1.100093    3.425167    1.085206
     61          6           0       -1.421003    0.156271    3.571337
     62          1           0       -0.533942    0.782604    3.440987
     63          1           0       -2.340679    0.727061    3.431775
     64          1           0       -1.422572   -0.358188    4.533764
     65          6           0        3.284348    2.539885   -0.190075
     66          1           0        3.458753    1.811341   -0.990782
     67          1           0        2.376732    3.079180   -0.480792
     68          6           0        4.449829    3.525310   -0.115021
     69          1           0        4.613448    4.039232   -1.067218
     70          1           0        4.260976    4.287704    0.649160
     71          1           0        5.379534    3.013431    0.158636
     72          6           0        4.938703   -2.105141   -0.422722
     73          1           0        5.554489   -2.033229    0.475506
     74          1           0        5.390135   -2.839519   -1.099136
     75          6           0        4.747054   -0.760639   -1.126965
     76          1           0        4.527794    0.005302   -0.378308
     77          1           0        5.608869   -0.445096   -1.718701
 ---------------------------------------------------------------------

 SCF Done:  E(RM062X) =  -1991.35769829     A.U. after   14 cycles

 The electronic state is 1-A.
 Alpha  occ. eigenvalues --  -90.14378 -19.61963 -19.61915 -19.58565 -19.56638
 Alpha  occ. eigenvalues --  -19.50969 -14.85242 -14.80388 -14.76198 -10.63401
 Alpha  occ. eigenvalues --  -10.62787 -10.62256 -10.62093 -10.60853 -10.59531
 Alpha  occ. eigenvalues --  -10.58286 -10.57989 -10.57949 -10.57186 -10.56895
 Alpha  occ. eigenvalues --  -10.56766 -10.55735 -10.55709 -10.55045 -10.54898
 Alpha  occ. eigenvalues --  -10.54876 -10.54765 -10.54679 -10.54614 -10.54433
 Alpha  occ. eigenvalues --  -10.54424 -10.54349 -10.53016 -10.51362 -10.51324
 Alpha  occ. eigenvalues --  -10.49564  -8.45354  -6.37574  -6.37545  -6.37388
 Alpha  occ. eigenvalues --   -1.22188  -1.13620  -1.13349  -1.10441  -1.09291
 Alpha  occ. eigenvalues --   -1.05791  -1.01978  -0.99213  -0.95818  -0.95008
 Alpha  occ. eigenvalues --   -0.93543  -0.90323  -0.88759  -0.86066  -0.85622
 Alpha  occ. eigenvalues --   -0.84835  -0.84760  -0.84142  -0.83069  -0.82816
 Alpha  occ. eigenvalues --   -0.76694  -0.76140  -0.75807  -0.74287  -0.72929
 Alpha  occ. eigenvalues --   -0.71729  -0.68315  -0.68178  -0.67929  -0.67316
 Alpha  occ. eigenvalues --   -0.66689  -0.65290  -0.64849  -0.63531  -0.60518
 Alpha  occ. eigenvalues --   -0.60395  -0.59731  -0.59280  -0.57777  -0.57662
 Alpha  occ. eigenvalues --   -0.57246  -0.56467  -0.55815  -0.55153  -0.54234
 Alpha  occ. eigenvalues --   -0.53597  -0.52734  -0.52550  -0.52504  -0.51930
 Alpha  occ. eigenvalues --   -0.51574  -0.50960  -0.50574  -0.49915  -0.49460
 Alpha  occ. eigenvalues --   -0.49152  -0.48907  -0.48214  -0.48128  -0.47920
 Alpha  occ. eigenvalues --   -0.47738  -0.47514  -0.46983  -0.46358  -0.46078
 Alpha  occ. eigenvalues --   -0.44952  -0.44733  -0.44214  -0.43828  -0.43276
 Alpha  occ. eigenvalues --   -0.42576  -0.42174  -0.41316  -0.41229  -0.41028
 Alpha  occ. eigenvalues --   -0.40880  -0.40540  -0.39986  -0.39765  -0.39242
 Alpha  occ. eigenvalues --   -0.39221  -0.39100  -0.38408  -0.38084  -0.37686
 Alpha  occ. eigenvalues --   -0.37351  -0.36718  -0.36494  -0.35856  -0.34935
 Alpha  occ. eigenvalues --   -0.34404  -0.34053  -0.31711  -0.31201  -0.29791
 Alpha  occ. eigenvalues --   -0.28866  -0.28602  -0.27700  -0.24549  -0.24198
 Alpha virt. eigenvalues --   -0.01503   0.00379   0.03511   0.03724   0.10118
 Alpha virt. eigenvalues --    0.10858   0.11572   0.12299   0.13142   0.13410
 Alpha virt. eigenvalues --    0.14221   0.14429   0.14743   0.15254   0.15591

 Mulliken charges:
               1
     1  C   -0.306319
     2  C   -0.307331
     3  C   -0.309307
     4  C   -0.059899
     5  C    0.055618
     6  C   -0.310649
     7  H    0.174464
     8  H    0.163043
     9  H    0.165960
    10  H    0.150663
    11  H    0.164051
    12  H    0.208553
    13  H    0.174068
    14  H    0.194529
    15  H    0.163387
    16  H    0.154918
    17  N   -0.432102
    18  C    0.068379
    19  C    0.065501
    20  C   -0.201908
    21  H    0.205901
    22  C   -0.210295
    23  H    0.244234
    24  C    0.446682
    25  H    0.192390
    26  H    0.211281
    27  N   -0.524714
    28  C   -0.169498
    29  H    0.169342
    30  H    0.226944
    31  C   -0.153502
    32  H    0.164003
    33  H    0.207096
    34  N   -0.810877
    35  S    1.250445
    36  O   -0.609016
    37  O   -0.602980
    38  C    0.078803
    39  C   -0.187959
    40  C   -0.190494
    41  C   -0.172135
    42  C   -0.164093
    43  C   -0.211079
    44  H    0.217384
    45  H    0.140279
    46  H    0.154959
    47  H    0.158539
    48  H    0.152301
    49  O   -0.555611
    50  H    0.445680
    51  C    0.721315
    52  O   -0.719065
    53  O   -0.716712
    54  H    0.441372
    55  C   -0.338017
    56  H    0.147331
    57  H    0.150764
    58  C   -0.088066
    59  H    0.138026
    60  H    0.148568
    61  C   -0.663830
    62  H    0.276252
    63  H    0.196888
    64  H    0.218288
    65  C   -0.290197
    66  H    0.133723
    67  H    0.145255
    68  C   -0.473361
    69  H    0.148494
    70  H    0.153014
    71  H    0.146603
    72  C   -0.332411
    73  H    0.186549
    74  H    0.162387
    75  C   -0.342301
    76  H    0.199203
    77  H    0.170299
 Sum of Mulliken charges =  -0.00000

 Dipole moment (field-independent basis, Debye):
    X=             -2.8577    Y=             -2.1027    Z=             -6.2138  Tot=              7.1554
 Quadrupole moment (field-independent basis, Debye-Ang):
   XX=           -206.4814   YY=           -221.9985   ZZ=           -220.1756
   XY=            -12.6928   XZ=             -4.8764   YZ=             10.2046

 Normal termination of Gaussian 16 at Thu Feb  7 13:12:58 2019.
