 Gaussian 16, Revision A.03,
 Gaussian 16:  ES64L-G16RevA.03 25-Dec-2016

 ------------------------------------------
 #p M062X/6-31G* em=gd3 force int=ultrafine
 ------------------------------------------

 -----
 Title
 -----
 Symbolic Z-matrix:
 Charge =  0 Multiplicity = 1

                         Standard orientation:
 ---------------------------------------------------------------------
 Center     Atomic      Atomic             Coordinates (Angstroms)
 Number     Number       Type             X           Y           Z
 ---------------------------------------------------------------------
      1          6           0       -4.860585    0.523966   -0.545127
      2          6           0       -5.032877   -0.762860   -1.357294
      3          6           0       -3.691664   -1.223024   -1.941101
      4          6           0       -2.701796   -1.446447   -0.802090
      5          6           0       -2.500338   -0.144287    0.010292
      6          6           0       -3.836374    0.343854    0.578482
      7          1           0       -3.804557   -2.140609   -2.528189
      8          1           0       -5.438395   -1.553772   -0.712754
      9          1           0       -5.752085   -0.610895   -2.168124
     10          1           0       -4.519915    1.327310   -1.212631
     11          1           0       -5.822460    0.838343   -0.127593
     12          1           0       -3.091052   -2.219121   -0.131069
     13          1           0       -2.145246    0.617045   -0.696371
     14          1           0       -4.204799   -0.375750    1.317559
     15          1           0       -3.656706    1.295822    1.090941
     16          1           0       -3.324045   -0.436290   -2.613530
     17          7           0       -1.371517   -1.921919   -1.237517
     18          6           0       -0.685122   -1.263288   -2.209260
     19          6           0       -0.678833   -2.729442   -0.391498
     20          6           0        0.665541   -1.361270   -2.341779
     21          1           0       -1.272253   -0.627719   -2.859612
     22          6           0        0.673490   -2.865810   -0.451039
     23          1           0       -1.265645   -3.220203    0.377208
     24          6           0        1.424478   -2.094477   -1.380593
     25          1           0        1.153992   -0.809084   -3.133578
     26          1           0        1.155961   -3.478311    0.297374
     27          7           0        2.751944   -2.069631   -1.354853
     28          6           0        3.487932   -2.580968   -0.187456
     29          1           0        3.343276   -3.659921   -0.081323
     30          1           0        3.118986   -2.052110    0.702705
     31          6           0        3.525168   -1.029589   -2.055505
     32          1           0        3.784043   -1.374106   -3.064513
     33          1           0        2.933882   -0.112450   -2.098479
     34          7           0       -1.417915   -0.265004    0.970451
     35         16           0       -1.436677   -1.143966    2.343718
     36          8           0       -2.669480   -1.934378    2.332756
     37          8           0       -0.163313   -1.851987    2.477811
     38          6           0       -0.530115    2.677953   -0.067381
     39          6           0       -0.039091    2.072420   -1.232140
     40          6           0       -0.763103    2.152951   -2.421325
     41          6           0       -1.991374    2.812441   -2.468031
     42          6           0       -2.492271    3.402884   -1.309255
     43          6           0       -1.761796    3.336349   -0.123176
     44          1           0        0.886390    1.500112   -1.163221
     45          1           0       -0.360015    1.698671   -3.324431
     46          1           0       -2.550036    2.872117   -3.397962
     47          1           0       -3.448960    3.917504   -1.328997
     48          1           0       -2.158054    3.801746    0.777183
     49          8           0        0.678892    1.368799    1.655308
     50          1           0       -0.531827    0.257105    0.851678
     51          6           0        2.047190    0.739350    1.177290
     52          8           0        1.898166    0.182771    0.025986
     53          8           0        2.266701   -0.147301    2.254055
     54          1           0        1.571641   -0.825571    2.173348
     55          6           0        3.128838    1.830320    1.302986
     56          1           0        2.896997    2.498381    2.142119
     57          1           0        4.052707    1.307312    1.582564
     58          6           0        0.247032    2.634982    1.244266
     59          1           0       -0.417349    3.022146    2.032202
     60          1           0        1.087714    3.341343    1.186621
     61          6           0       -1.474958    0.059527    3.652763
     62          1           0       -0.588970    0.684754    3.503733
     63          1           0       -2.397084    0.636139    3.566082
     64          1           0       -1.431706   -0.474734    4.603144
     65          6           0        3.379463    2.620350    0.020606
     66          1           0        3.684573    1.922756   -0.767656
     67          1           0        2.453444    3.079356   -0.345626
     68          6           0        4.441251    3.700505    0.213270
     69          1           0        4.641485    4.244359   -0.715126
     70          1           0        4.123697    4.429951    0.966867
     71          1           0        5.384823    3.263812    0.559177
     72          6           0        4.931025   -2.196326   -0.491213
     73          1           0        5.537157   -2.149189    0.415374
     74          1           0        5.383471   -2.921312   -1.177202
     75          6           0        4.757161   -0.836734   -1.169083
     76          1           0        4.506258   -0.089562   -0.410906
     77          1           0        5.632561   -0.509283   -1.734044
 ---------------------------------------------------------------------

 SCF Done:  E(RM062X) =  -1991.35564706     A.U. after   15 cycles

 The electronic state is 1-A.
 Alpha  occ. eigenvalues --  -90.14747 -19.62374 -19.62088 -19.58598 -19.57039
 Alpha  occ. eigenvalues --  -19.50652 -14.85182 -14.80034 -14.76523 -10.63153
 Alpha  occ. eigenvalues --  -10.62608 -10.62227 -10.62125 -10.61082 -10.59875
 Alpha  occ. eigenvalues --  -10.57762 -10.57754 -10.57620 -10.57037 -10.56968
 Alpha  occ. eigenvalues --  -10.56888 -10.56355 -10.55873 -10.55123 -10.55084
 Alpha  occ. eigenvalues --  -10.55042 -10.54884 -10.54686 -10.54681 -10.54649
 Alpha  occ. eigenvalues --  -10.54464 -10.54048 -10.53125 -10.51101 -10.50993
 Alpha  occ. eigenvalues --  -10.49572  -8.45717  -6.37945  -6.37894  -6.37766
 Alpha  occ. eigenvalues --   -1.22535  -1.13456  -1.12838  -1.10739  -1.08871
 Alpha  occ. eigenvalues --   -1.05958  -1.02438  -1.00014  -0.95831  -0.95222
 Alpha  occ. eigenvalues --   -0.93470  -0.90118  -0.88567  -0.86535  -0.85366
 Alpha  occ. eigenvalues --   -0.84931  -0.84851  -0.83704  -0.83313  -0.83059
 Alpha  occ. eigenvalues --   -0.76565  -0.75986  -0.75551  -0.74239  -0.73262
 Alpha  occ. eigenvalues --   -0.71757  -0.68230  -0.68141  -0.67748  -0.67486
 Alpha  occ. eigenvalues --   -0.66432  -0.65487  -0.64878  -0.63335  -0.60511
 Alpha  occ. eigenvalues --   -0.60381  -0.59950  -0.59416  -0.57940  -0.57689
 Alpha  occ. eigenvalues --   -0.57151  -0.56391  -0.55668  -0.55092  -0.54383
 Alpha  occ. eigenvalues --   -0.53558  -0.53075  -0.52673  -0.52470  -0.52172
 Alpha  occ. eigenvalues --   -0.51683  -0.50807  -0.50135  -0.49919  -0.49357
 Alpha  occ. eigenvalues --   -0.49241  -0.48939  -0.48489  -0.48184  -0.48014
 Alpha  occ. eigenvalues --   -0.47722  -0.47635  -0.47161  -0.46173  -0.45811
 Alpha  occ. eigenvalues --   -0.45288  -0.45168  -0.44390  -0.44018  -0.43191
 Alpha  occ. eigenvalues --   -0.42471  -0.42329  -0.41181  -0.40871  -0.40755
 Alpha  occ. eigenvalues --   -0.40673  -0.40398  -0.40124  -0.39838  -0.39408
 Alpha  occ. eigenvalues --   -0.39147  -0.38894  -0.38689  -0.38317  -0.37797
 Alpha  occ. eigenvalues --   -0.37420  -0.36509  -0.36440  -0.36059  -0.35022
 Alpha  occ. eigenvalues --   -0.34548  -0.34286  -0.31781  -0.31348  -0.30023
 Alpha  occ. eigenvalues --   -0.29285  -0.28826  -0.27762  -0.24293  -0.23987
 Alpha virt. eigenvalues --   -0.01227   0.00581   0.03205   0.03561   0.10153
 Alpha virt. eigenvalues --    0.10591   0.11337   0.12565   0.13169   0.13317
 Alpha virt. eigenvalues --    0.14147   0.14432   0.15056   0.15523   0.15546

 Mulliken charges:
               1
     1  C   -0.306455
     2  C   -0.307795
     3  C   -0.311111
     4  C   -0.060334
     5  C    0.064872
     6  C   -0.306836
     7  H    0.175512
     8  H    0.163268
     9  H    0.166772
    10  H    0.151169
    11  H    0.164941
    12  H    0.207208
    13  H    0.174697
    14  H    0.192737
    15  H    0.160730
    16  H    0.156334
    17  N   -0.437421
    18  C    0.079225
    19  C    0.079894
    20  C   -0.209342
    21  H    0.202900
    22  C   -0.220757
    23  H    0.243438
    24  C    0.449371
    25  H    0.192022
    26  H    0.209722
    27  N   -0.518327
    28  C   -0.165522
    29  H    0.166973
    30  H    0.221315
    31  C   -0.145530
    32  H    0.160339
    33  H    0.205452
    34  N   -0.810263
    35  S    1.238297
    36  O   -0.603384
    37  O   -0.591494
    38  C    0.049904
    39  C   -0.196523
    40  C   -0.192529
    41  C   -0.172359
    42  C   -0.165362
    43  C   -0.205071
    44  H    0.234050
    45  H    0.141682
    46  H    0.156246
    47  H    0.159841
    48  H    0.154242
    49  O   -0.598111
    50  H    0.449910
    51  C    0.715598
    52  O   -0.690190
    53  O   -0.702960
    54  H    0.432327
    55  C   -0.340330
    56  H    0.143706
    57  H    0.150837
    58  C   -0.080730
    59  H    0.131156
    60  H    0.156359
    61  C   -0.666211
    62  H    0.267991
    63  H    0.200286
    64  H    0.222823
    65  C   -0.285194
    66  H    0.142598
    67  H    0.140359
    68  C   -0.474881
    69  H    0.148215
    70  H    0.149285
    71  H    0.148481
    72  C   -0.334023
    73  H    0.184427
    74  H    0.159946
    75  C   -0.338290
    76  H    0.204992
    77  H    0.164888
 Sum of Mulliken charges =  -0.00000

 Dipole moment (field-independent basis, Debye):
    X=             -3.5812    Y=             -1.5560    Z=             -5.7112  Tot=              6.9184
 Quadrupole moment (field-independent basis, Debye-Ang):
   XX=           -208.6209   YY=           -222.4201   ZZ=           -218.3004
   XY=            -13.3920   XZ=             -4.1001   YZ=             10.7822

 Normal termination of Gaussian 16 at Thu Feb  7 10:05:08 2019.
