 Gaussian 16, Revision A.03,
 Gaussian 16:  ES64L-G16RevA.03 25-Dec-2016

 ------------------------------------------
 #p M062X/6-31G* em=gd3 force int=ultrafine
 ------------------------------------------

 -----
 Title
 -----
 Symbolic Z-matrix:
 Charge =  0 Multiplicity = 1

                         Standard orientation:
 ---------------------------------------------------------------------
 Center     Atomic      Atomic             Coordinates (Angstroms)
 Number     Number       Type             X           Y           Z
 ---------------------------------------------------------------------
      1          6           0       -4.868629    0.201008   -0.453267
      2          6           0       -4.960138   -1.090309   -1.271791
      3          6           0       -3.592588   -1.463577   -1.857085
      4          6           0       -2.588342   -1.609152   -0.717916
      5          6           0       -2.447833   -0.283657    0.084426
      6          6           0       -3.822462    0.088308    0.660077
      7          1           0       -3.650142   -2.390095   -2.439852
      8          1           0       -5.314831   -1.908059   -0.630888
      9          1           0       -5.687584   -0.981340   -2.083073
     10          1           0       -4.585103    1.026305   -1.121725
     11          1           0       -5.849392    0.450578   -0.034565
     12          1           0       -2.920946   -2.397575   -0.036421
     13          1           0       -2.208231    0.484057   -0.666990
     14          1           0       -4.124866   -0.665422    1.398010
     15          1           0       -3.716888    1.046944    1.181887
     16          1           0       -3.283647   -0.657399   -2.536582
     17          7           0       -1.232506   -2.011138   -1.161487
     18          6           0       -0.605208   -1.344288   -2.158140
     19          6           0       -0.489690   -2.760237   -0.312568
     20          6           0        0.749132   -1.388407   -2.325667
     21          1           0       -1.236754   -0.748161   -2.804131
     22          6           0        0.869372   -2.849733   -0.413588
     23          1           0       -1.034471   -3.242951    0.491779
     24          6           0        1.557788   -2.081983   -1.382747
     25          1           0        1.191215   -0.835227   -3.143860
     26          1           0        1.393802   -3.418632    0.341215
     27          7           0        2.895700   -1.999156   -1.391440
     28          6           0        3.676319   -2.479887   -0.243905
     29          1           0        3.611078   -3.568483   -0.159422
     30          1           0        3.279958   -2.025342    0.674858
     31          6           0        3.605495   -0.934875   -2.118294
     32          1           0        3.869252   -1.277075   -3.126306
     33          1           0        2.971435   -0.046856   -2.185291
     34          7           0       -1.319171   -0.276642    0.988728
     35         16           0       -1.293368   -1.184485    2.281568
     36          8           0       -2.328485   -2.241656    2.295057
     37          8           0        0.094655   -1.674212    2.503785
     38          6           0       -0.953677    2.842628   -0.142577
     39          6           0       -0.305408    2.155731   -1.176488
     40          6           0       -0.900443    2.072999   -2.433547
     41          6           0       -2.158323    2.632086   -2.664509
     42          6           0       -2.820416    3.282784   -1.626503
     43          6           0       -2.214664    3.387491   -0.376560
     44          1           0        0.641750    1.656356   -0.978884
     45          1           0       -0.380289    1.564733   -3.242644
     46          1           0       -2.620471    2.561236   -3.644689
     47          1           0       -3.806461    3.709111   -1.785093
     48          1           0       -2.729275    3.891231    0.438364
     49          8           0        0.272437    1.791192    1.668127
     50          1           0       -0.291909    1.023215    1.339685
     51          6           0        2.442572    0.613822    1.177749
     52          8           0        2.093656    0.192406    0.089234
     53          8           0        2.264905   -0.048693    2.311234
     54          1           0        1.540064   -0.723644    2.209901
     55          6           0        3.183340    1.916828    1.368541
     56          1           0        2.662124    2.458794    2.163940
     57          1           0        4.188532    1.688977    1.749391
     58          6           0       -0.315177    2.976814    1.223522
     59          1           0       -1.071778    3.348029    1.933827
     60          1           0        0.480190    3.736680    1.184539
     61          6           0       -1.596766   -0.099891    3.674318
     62          1           0       -0.848163    0.694404    3.620322
     63          1           0       -2.602816    0.312721    3.576907
     64          1           0       -1.497410   -0.670438    4.598596
     65          6           0        3.256763    2.745666    0.091226
     66          1           0        3.672714    2.135171   -0.719224
     67          1           0        2.239466    3.004637   -0.223816
     68          6           0        4.086953    4.013404    0.269227
     69          1           0        4.150302    4.581837   -0.663210
     70          1           0        3.649859    4.666937    1.031482
     71          1           0        5.107738    3.772602    0.585535
     72          6           0        5.090889   -1.991356   -0.542598
     73          1           0        5.683242   -1.882133    0.368101
     74          1           0        5.602374   -2.696868   -1.205120
     75          6           0        4.844357   -0.662065   -1.259919
     76          1           0        4.599419    0.111407   -0.526904
     77          1           0        5.695988   -0.323155   -1.853329
 ---------------------------------------------------------------------

 SCF Done:  E(RM062X) =  -1991.38609120     A.U. after   15 cycles

 The electronic state is 1-A.
 Alpha  occ. eigenvalues --  -90.10291 -19.63491 -19.60147 -19.58960 -19.58443
 Alpha  occ. eigenvalues --  -19.58314 -14.84786 -14.80451 -14.69322 -10.65628
 Alpha  occ. eigenvalues --  -10.63208 -10.62415 -10.61530 -10.59154 -10.59102
 Alpha  occ. eigenvalues --  -10.58962 -10.57823 -10.57383 -10.56773 -10.56695
 Alpha  occ. eigenvalues --  -10.55974 -10.55716 -10.55585 -10.55020 -10.54955
 Alpha  occ. eigenvalues --  -10.54895 -10.54618 -10.54590 -10.54502 -10.53882
 Alpha  occ. eigenvalues --  -10.53585 -10.53501 -10.53349 -10.53311 -10.52778
 Alpha  occ. eigenvalues --  -10.52628  -8.41250  -6.33487  -6.33396  -6.33316
 Alpha  occ. eigenvalues --   -1.19222  -1.17784  -1.12924  -1.10148  -1.09933
 Alpha  occ. eigenvalues --   -1.09097  -1.06059  -0.97531  -0.95309  -0.94756
 Alpha  occ. eigenvalues --   -0.92190  -0.89828  -0.88561  -0.88244  -0.85051
 Alpha  occ. eigenvalues --   -0.84884  -0.83680  -0.83518  -0.83296  -0.80100
 Alpha  occ. eigenvalues --   -0.79305  -0.76324  -0.75625  -0.74662  -0.70939
 Alpha  occ. eigenvalues --   -0.70234  -0.69241  -0.68681  -0.68340  -0.68060
 Alpha  occ. eigenvalues --   -0.65919  -0.64747  -0.63922  -0.63468  -0.61602
 Alpha  occ. eigenvalues --   -0.60259  -0.59370  -0.59052  -0.58351  -0.56157
 Alpha  occ. eigenvalues --   -0.55533  -0.55235  -0.55128  -0.54269  -0.53802
 Alpha  occ. eigenvalues --   -0.53449  -0.53055  -0.52548  -0.51910  -0.51671
 Alpha  occ. eigenvalues --   -0.51090  -0.50961  -0.50615  -0.50052  -0.49833
 Alpha  occ. eigenvalues --   -0.49628  -0.49534  -0.48789  -0.48322  -0.47994
 Alpha  occ. eigenvalues --   -0.47809  -0.47202  -0.47052  -0.46974  -0.45869
 Alpha  occ. eigenvalues --   -0.45643  -0.45214  -0.43947  -0.43669  -0.43451
 Alpha  occ. eigenvalues --   -0.42828  -0.42739  -0.42179  -0.42026  -0.41860
 Alpha  occ. eigenvalues --   -0.41182  -0.40907  -0.40529  -0.39885  -0.39593
 Alpha  occ. eigenvalues --   -0.39363  -0.39285  -0.38957  -0.38402  -0.38007
 Alpha  occ. eigenvalues --   -0.37335  -0.36229  -0.35807  -0.35339  -0.35159
 Alpha  occ. eigenvalues --   -0.34307  -0.33032  -0.32011  -0.31648  -0.31425
 Alpha  occ. eigenvalues --   -0.29910  -0.28838  -0.28322  -0.27367  -0.25362
 Alpha virt. eigenvalues --   -0.01043   0.00673   0.03180   0.03745   0.08911
 Alpha virt. eigenvalues --    0.10173   0.10929   0.11808   0.12954   0.13547
 Alpha virt. eigenvalues --    0.13842   0.14305   0.14987   0.15479   0.15841

 Mulliken charges:
               1
     1  C   -0.303968
     2  C   -0.304205
     3  C   -0.309717
     4  C   -0.072643
     5  C    0.065657
     6  C   -0.304900
     7  H    0.166688
     8  H    0.161134
     9  H    0.159196
    10  H    0.145487
    11  H    0.156901
    12  H    0.211065
    13  H    0.140955
    14  H    0.179813
    15  H    0.150305
    16  H    0.149975
    17  N   -0.423945
    18  C    0.098197
    19  C    0.086203
    20  C   -0.226776
    21  H    0.204658
    22  C   -0.226562
    23  H    0.262302
    24  C    0.427274
    25  H    0.187733
    26  H    0.207611
    27  N   -0.527506
    28  C   -0.158582
    29  H    0.178277
    30  H    0.198443
    31  C   -0.146171
    32  H    0.169587
    33  H    0.194469
    34  N   -0.761964
    35  S    1.248614
    36  O   -0.642891
    37  O   -0.669698
    38  C    0.049807
    39  C   -0.176306
    40  C   -0.188166
    41  C   -0.169593
    42  C   -0.161128
    43  C   -0.199359
    44  H    0.204644
    45  H    0.139311
    46  H    0.156751
    47  H    0.162112
    48  H    0.157981
    49  O   -0.716411
    50  H    0.484578
    51  C    0.657010
    52  O   -0.521328
    53  O   -0.646624
    54  H    0.484672
    55  C   -0.371725
    56  H    0.202818
    57  H    0.165573
    58  C   -0.062961
    59  H    0.127027
    60  H    0.148801
    61  C   -0.660948
    62  H    0.225821
    63  H    0.186494
    64  H    0.206582
    65  C   -0.289245
    66  H    0.145607
    67  H    0.162466
    68  C   -0.480381
    69  H    0.159263
    70  H    0.158480
    71  H    0.151572
    72  C   -0.336748
    73  H    0.184438
    74  H    0.169838
    75  C   -0.335798
    76  H    0.181114
    77  H    0.172946
 Sum of Mulliken charges =  -0.00000

 Dipole moment (field-independent basis, Debye):
    X=              1.5638    Y=             -0.1746    Z=             -6.6594  Tot=              6.8428
 Quadrupole moment (field-independent basis, Debye-Ang):
   XX=           -199.2898   YY=           -222.5012   ZZ=           -222.5824
   XY=            -11.6286   XZ=             -0.0317   YZ=             12.7233

 Normal termination of Gaussian 16 at Thu Feb  7 22:47:59 2019.
