 Gaussian 16, Revision A.03,
 Gaussian 16:  ES64L-G16RevA.03 25-Dec-2016

 ------------------------------------------
 #p M062X/6-31G* em=gd3 force int=ultrafine
 ------------------------------------------

 -----
 Title
 -----
 Symbolic Z-matrix:
 Charge =  0 Multiplicity = 1

                         Standard orientation:
 ---------------------------------------------------------------------
 Center     Atomic      Atomic             Coordinates (Angstroms)
 Number     Number       Type             X           Y           Z
 ---------------------------------------------------------------------
      1          6           0       -4.820303    0.466374   -0.524639
      2          6           0       -5.020541   -0.847137   -1.286758
      3          6           0       -3.699269   -1.331591   -1.895779
      4          6           0       -2.679385   -1.511035   -0.776910
      5          6           0       -2.438778   -0.175670   -0.028884
      6          6           0       -3.755787    0.330668    0.569143
      7          1           0       -3.831120   -2.271931   -2.441533
      8          1           0       -5.406464   -1.615225   -0.603712
      9          1           0       -5.765294   -0.720626   -2.078793
     10          1           0       -4.509529    1.246908   -1.231858
     11          1           0       -5.767675    0.791497   -0.082539
     12          1           0       -3.054029   -2.249011   -0.060709
     13          1           0       -2.119369    0.557433   -0.780587
     14          1           0       -4.100241   -0.362549    1.343547
     15          1           0       -3.565111    1.301235    1.039831
     16          1           0       -3.351263   -0.573775   -2.610613
     17          7           0       -1.362234   -2.010937   -1.222905
     18          6           0       -0.682169   -1.356263   -2.202173
     19          6           0       -0.663230   -2.794650   -0.359373
     20          6           0        0.671079   -1.428662   -2.319850
     21          1           0       -1.277106   -0.740054   -2.864808
     22          6           0        0.691861   -2.904392   -0.403765
     23          1           0       -1.247184   -3.274219    0.418709
     24          6           0        1.431753   -2.122141   -1.331200
     25          1           0        1.157132   -0.879178   -3.114780
     26          1           0        1.181249   -3.487819    0.363049
     27          7           0        2.756150   -2.044457   -1.279133
     28          6           0        3.498617   -2.511711   -0.098552
     29          1           0        3.368679   -3.588895    0.037938
     30          1           0        3.123210   -1.963531    0.777918
     31          6           0        3.493769   -0.987186   -1.987413
     32          1           0        3.735725   -1.316692   -3.005471
     33          1           0        2.876458   -0.085325   -2.014040
     34          7           0       -1.317358   -0.245973    0.896150
     35         16           0       -1.345098   -1.067229    2.309315
     36          8           0       -2.574499   -1.864392    2.340703
     37          8           0       -0.070435   -1.768995    2.473059
     38          6           0       -0.546431    2.653804   -0.062607
     39          6           0       -0.072993    2.109971   -1.266904
     40          6           0       -0.843270    2.175760   -2.426959
     41          6           0       -2.101865    2.776812   -2.418344
     42          6           0       -2.584072    3.317652   -1.229161
     43          6           0       -1.808981    3.255139   -0.070873
     44          1           0        0.876704    1.584847   -1.257399
     45          1           0       -0.449279    1.758662   -3.351765
     46          1           0       -2.695090    2.830318   -3.327084
     47          1           0       -3.560747    3.793057   -1.201888
     48          1           0       -2.194813    3.688420    0.849849
     49          8           0        0.740434    1.529243    1.813690
     50          1           0       -0.352435   -0.011710    0.571837
     51          6           0        1.918932    0.808271    1.213212
     52          8           0        1.560833    0.194353    0.110761
     53          8           0        2.271099   -0.064951    2.272245
     54          1           0        1.570957   -0.742801    2.278919
     55          6           0        3.102532    1.805292    1.135454
     56          1           0        3.008321    2.522324    1.961475
     57          1           0        4.008579    1.225786    1.352927
     58          6           0        0.274280    2.713974    1.230587
     59          1           0       -0.374723    3.174220    1.987803
     60          1           0        1.103593    3.420748    1.076378
     61          6           0       -1.415147    0.175492    3.577994
     62          1           0       -0.526277    0.797783    3.440321
     63          1           0       -2.333757    0.749134    3.443553
     64          1           0       -1.411766   -0.336947    4.541516
     65          6           0        3.297418    2.542965   -0.186674
     66          1           0        3.487683    1.815057   -0.984386
     67          1           0        2.385929    3.070571   -0.486822
     68          6           0        4.450271    3.542351   -0.102296
     69          1           0        4.617817    4.055833   -1.054058
     70          1           0        4.244664    4.304418    0.657847
     71          1           0        5.383038    3.042313    0.182330
     72          6           0        4.935132   -2.120098   -0.424144
     73          1           0        5.551310   -2.047994    0.473796
     74          1           0        5.385504   -2.855628   -1.100051
     75          6           0        4.744054   -0.776175   -1.129353
     76          1           0        4.521352   -0.010529   -0.381330
     77          1           0        5.606708   -0.459849   -1.719474
 ---------------------------------------------------------------------

 SCF Done:  E(RM062X) =  -1991.35750673     A.U. after   14 cycles

 The electronic state is 1-A.
 Alpha  occ. eigenvalues --  -90.14438 -19.62020 -19.61962 -19.58556 -19.56642
 Alpha  occ. eigenvalues --  -19.50902 -14.85255 -14.80363 -14.76307 -10.63386
 Alpha  occ. eigenvalues --  -10.62781 -10.62256 -10.62070 -10.60887 -10.59577
 Alpha  occ. eigenvalues --  -10.58247 -10.57975 -10.57922 -10.57180 -10.56900
 Alpha  occ. eigenvalues --  -10.56787 -10.55758 -10.55757 -10.55012 -10.54927
 Alpha  occ. eigenvalues --  -10.54883 -10.54775 -10.54631 -10.54622 -10.54467
 Alpha  occ. eigenvalues --  -10.54429 -10.54354 -10.52996 -10.51324 -10.51284
 Alpha  occ. eigenvalues --  -10.49529  -8.45413  -6.37634  -6.37604  -6.37448
 Alpha  occ. eigenvalues --   -1.22245  -1.13624  -1.13274  -1.10497  -1.09265
 Alpha  occ. eigenvalues --   -1.05753  -1.02046  -0.99180  -0.95832  -0.95010
 Alpha  occ. eigenvalues --   -0.93550  -0.90319  -0.88753  -0.86117  -0.85581
 Alpha  occ. eigenvalues --   -0.84839  -0.84770  -0.84109  -0.83070  -0.82855
 Alpha  occ. eigenvalues --   -0.76695  -0.76103  -0.75793  -0.74269  -0.72969
 Alpha  occ. eigenvalues --   -0.71744  -0.68303  -0.68164  -0.67920  -0.67349
 Alpha  occ. eigenvalues --   -0.66662  -0.65314  -0.64839  -0.63526  -0.60509
 Alpha  occ. eigenvalues --   -0.60383  -0.59705  -0.59357  -0.57757  -0.57681
 Alpha  occ. eigenvalues --   -0.57260  -0.56473  -0.55818  -0.55144  -0.54243
 Alpha  occ. eigenvalues --   -0.53602  -0.52768  -0.52571  -0.52502  -0.51938
 Alpha  occ. eigenvalues --   -0.51582  -0.50941  -0.50530  -0.49920  -0.49435
 Alpha  occ. eigenvalues --   -0.49137  -0.48929  -0.48217  -0.48124  -0.47896
 Alpha  occ. eigenvalues --   -0.47756  -0.47526  -0.47007  -0.46332  -0.46061
 Alpha  occ. eigenvalues --   -0.44978  -0.44733  -0.44230  -0.43818  -0.43276
 Alpha  occ. eigenvalues --   -0.42584  -0.42180  -0.41285  -0.41207  -0.41008
 Alpha  occ. eigenvalues --   -0.40859  -0.40550  -0.39981  -0.39766  -0.39243
 Alpha  occ. eigenvalues --   -0.39211  -0.39102  -0.38401  -0.38122  -0.37719
 Alpha  occ. eigenvalues --   -0.37338  -0.36700  -0.36473  -0.35890  -0.34942
 Alpha  occ. eigenvalues --   -0.34413  -0.34077  -0.31740  -0.31209  -0.29798
 Alpha  occ. eigenvalues --   -0.28875  -0.28601  -0.27708  -0.24471  -0.24147
 Alpha virt. eigenvalues --   -0.01484   0.00383   0.03501   0.03719   0.10118
 Alpha virt. eigenvalues --    0.10821   0.11543   0.12325   0.13145   0.13384
 Alpha virt. eigenvalues --    0.14216   0.14393   0.14738   0.15278   0.15586

 Mulliken charges:
               1
     1  C   -0.306338
     2  C   -0.307380
     3  C   -0.309453
     4  C   -0.059592
     5  C    0.055509
     6  C   -0.310429
     7  H    0.174591
     8  H    0.163057
     9  H    0.166095
    10  H    0.150665
    11  H    0.164234
    12  H    0.208227
    13  H    0.174393
    14  H    0.194770
    15  H    0.163385
    16  H    0.155127
    17  N   -0.432769
    18  C    0.069043
    19  C    0.066027
    20  C   -0.202333
    21  H    0.205737
    22  C   -0.210664
    23  H    0.244014
    24  C    0.447127
    25  H    0.192416
    26  H    0.211202
    27  N   -0.524294
    28  C   -0.169328
    29  H    0.169099
    30  H    0.226702
    31  C   -0.152876
    32  H    0.163674
    33  H    0.206887
    34  N   -0.809220
    35  S    1.249658
    36  O   -0.608152
    37  O   -0.601861
    38  C    0.076797
    39  C   -0.188839
    40  C   -0.190712
    41  C   -0.172282
    42  C   -0.164264
    43  C   -0.210673
    44  H    0.218843
    45  H    0.140252
    46  H    0.154972
    47  H    0.158521
    48  H    0.152259
    49  O   -0.557591
    50  H    0.444714
    51  C    0.720548
    52  O   -0.718162
    53  O   -0.716242
    54  H    0.440291
    55  C   -0.338053
    56  H    0.147099
    57  H    0.150701
    58  C   -0.087273
    59  H    0.137495
    60  H    0.148983
    61  C   -0.664040
    62  H    0.276587
    63  H    0.197212
    64  H    0.218630
    65  C   -0.289727
    66  H    0.133948
    67  H    0.144872
    68  C   -0.473482
    69  H    0.148386
    70  H    0.152686
    71  H    0.146858
    72  C   -0.332610
    73  H    0.186462
    74  H    0.162150
    75  C   -0.342007
    76  H    0.199784
    77  H    0.169958
 Sum of Mulliken charges =  -0.00000

 Dipole moment (field-independent basis, Debye):
    X=             -2.9468    Y=             -2.1285    Z=             -6.1646  Tot=              7.1566
 Quadrupole moment (field-independent basis, Debye-Ang):
   XX=           -206.6900   YY=           -221.8676   ZZ=           -220.1223
   XY=            -12.7392   XZ=             -4.7846   YZ=             10.2442

 Normal termination of Gaussian 16 at Thu Feb  7 12:56:35 2019.
