 Gaussian 16, Revision A.03,
 Gaussian 16:  ES64L-G16RevA.03 25-Dec-2016

 ------------------------------------------
 #p M062X/6-31G* em=gd3 force int=ultrafine
 ------------------------------------------

 -----
 Title
 -----
 Symbolic Z-matrix:
 Charge =  0 Multiplicity = 1

                         Standard orientation:
 ---------------------------------------------------------------------
 Center     Atomic      Atomic             Coordinates (Angstroms)
 Number     Number       Type             X           Y           Z
 ---------------------------------------------------------------------
      1          6           0       -4.781351    0.402308   -0.559094
      2          6           0       -4.959190   -0.883419   -1.372269
      3          6           0       -3.626759   -1.329749   -1.986926
      4          6           0       -2.618524   -1.540655   -0.863494
      5          6           0       -2.394007   -0.228236   -0.068060
      6          6           0       -3.722482    0.240304    0.536199
      7          1           0       -3.743838   -2.249778   -2.569560
      8          1           0       -5.341618   -1.681512   -0.722470
      9          1           0       -5.698620   -0.734960   -2.165454
     10          1           0       -4.476337    1.212738   -1.233876
     11          1           0       -5.735760    0.698295   -0.111587
     12          1           0       -2.997625   -2.303325   -0.176334
     13          1           0       -2.077144    0.532639   -0.792843
     14          1           0       -4.063698   -0.485590    1.281920
     15          1           0       -3.548404    1.195484    1.042950
     16          1           0       -3.280076   -0.541068   -2.668380
     17          7           0       -1.292013   -2.018530   -1.305960
     18          6           0       -0.607221   -1.337764   -2.262950
     19          6           0       -0.593972   -2.802872   -0.441368
     20          6           0        0.749591   -1.381708   -2.355083
     21          1           0       -1.201898   -0.726311   -2.930437
     22          6           0        0.764036   -2.878116   -0.455114
     23          1           0       -1.184324   -3.310772    0.313623
     24          6           0        1.503609   -2.062449   -1.352591
     25          1           0        1.238656   -0.815482   -3.136005
     26          1           0        1.250583   -3.461710    0.313444
     27          7           0        2.823646   -1.943882   -1.262572
     28          6           0        3.548851   -2.368593   -0.054858
     29          1           0        3.442612   -3.445658    0.100848
     30          1           0        3.138167   -1.814253    0.802073
     31          6           0        3.547733   -0.882315   -1.973974
     32          1           0        3.799320   -1.215026   -2.988470
     33          1           0        2.912783    0.006633   -2.020429
     34          7           0       -1.279598   -0.322316    0.861588
     35         16           0       -1.338208   -1.174604    2.249095
     36          8           0       -2.531841   -2.026203    2.221044
     37          8           0       -0.042504   -1.828316    2.453133
     38          6           0       -0.621109    2.695748    0.054772
     39          6           0       -0.147011    2.225378   -1.179948
     40          6           0       -0.934374    2.318570   -2.325878
     41          6           0       -2.212710    2.874952   -2.272140
     42          6           0       -2.697371    3.339447   -1.052774
     43          6           0       -1.903574    3.250477    0.091176
     44          1           0        0.818401    1.733504   -1.212734
     45          1           0       -0.539728    1.959893   -3.274338
     46          1           0       -2.820239    2.951353   -3.169751
     47          1           0       -3.690007    3.776879   -0.990044
     48          1           0       -2.289789    3.628021    1.035990
     49          8           0        0.689563    1.553938    1.905466
     50          1           0       -0.293924   -0.071008    0.554005
     51          6           0        1.826104    0.828504    1.261992
     52          8           0        1.420056    0.222054    0.164548
     53          8           0        2.215983   -0.056201    2.296639
     54          1           0        1.521404   -0.738976    2.322650
     55          6           0        3.029576    1.800489    1.136202
     56          1           0        2.989536    2.517195    1.966435
     57          1           0        3.922321    1.190262    1.320493
     58          6           0        0.223280    2.743677    1.331683
     59          1           0       -0.403889    3.209212    2.102979
     60          1           0        1.057929    3.439643    1.161353
     61          6           0       -1.514109    0.032752    3.541924
     62          1           0       -0.652149    0.699696    3.451831
     63          1           0       -2.452430    0.566996    3.382867
     64          1           0       -1.524577   -0.499067    4.494747
     65          6           0        3.205077    2.530382   -0.192330
     66          1           0        3.171466    1.798157   -1.008166
     67          1           0        2.374379    3.219881   -0.383801
     68          6           0        4.519754    3.307762   -0.240505
     69          1           0        4.650313    3.828118   -1.194401
     70          1           0        4.557096    4.056450    0.557108
     71          1           0        5.375887    2.639145   -0.099701
     72          6           0        4.984368   -1.953776   -0.357728
     73          1           0        5.574836   -1.838513    0.553015
     74          1           0        5.468195   -2.701560   -0.995622
     75          6           0        4.791741   -0.637217   -1.114545
     76          1           0        4.571598    0.159674   -0.399893
     77          1           0        5.657886   -0.343988   -1.711504
 ---------------------------------------------------------------------

 SCF Done:  E(RM062X) =  -1991.35876145     A.U. after   14 cycles

 The electronic state is 1-A.
 Alpha  occ. eigenvalues --  -90.14119 -19.61732 -19.61711 -19.58731 -19.56720
 Alpha  occ. eigenvalues --  -19.51334 -14.85150 -14.80452 -14.75622 -10.63409
 Alpha  occ. eigenvalues --  -10.62780 -10.62295 -10.62146 -10.60695 -10.59288
 Alpha  occ. eigenvalues --  -10.58553 -10.57977 -10.57917 -10.57125 -10.56884
 Alpha  occ. eigenvalues --  -10.56672 -10.55636 -10.55584 -10.55135 -10.54905
 Alpha  occ. eigenvalues --  -10.54818 -10.54756 -10.54701 -10.54552 -10.54379
 Alpha  occ. eigenvalues --  -10.54302 -10.54276 -10.53092 -10.51573 -10.51524
 Alpha  occ. eigenvalues --  -10.49744  -8.45096  -6.37312  -6.37290  -6.37133
 Alpha  occ. eigenvalues --   -1.21946  -1.13618  -1.13502  -1.10200  -1.09349
 Alpha  occ. eigenvalues --   -1.05904  -1.01670  -0.99363  -0.95717  -0.94975
 Alpha  occ. eigenvalues --   -0.93475  -0.90278  -0.88750  -0.85881  -0.85814
 Alpha  occ. eigenvalues --   -0.84814  -0.84684  -0.84269  -0.83045  -0.82656
 Alpha  occ. eigenvalues --   -0.76655  -0.76330  -0.75833  -0.74393  -0.72752
 Alpha  occ. eigenvalues --   -0.71612  -0.68327  -0.68254  -0.67934  -0.67179
 Alpha  occ. eigenvalues --   -0.66758  -0.65215  -0.64867  -0.63521  -0.60572
 Alpha  occ. eigenvalues --   -0.60402  -0.59792  -0.58940  -0.57812  -0.57575
 Alpha  occ. eigenvalues --   -0.57155  -0.56430  -0.55753  -0.55165  -0.54180
 Alpha  occ. eigenvalues --   -0.53510  -0.52644  -0.52425  -0.52394  -0.51900
 Alpha  occ. eigenvalues --   -0.51540  -0.51050  -0.50856  -0.49860  -0.49585
 Alpha  occ. eigenvalues --   -0.49157  -0.48818  -0.48204  -0.48121  -0.48054
 Alpha  occ. eigenvalues --   -0.47648  -0.47447  -0.46900  -0.46456  -0.46098
 Alpha  occ. eigenvalues --   -0.44896  -0.44714  -0.44123  -0.43882  -0.43254
 Alpha  occ. eigenvalues --   -0.42481  -0.42109  -0.41456  -0.41384  -0.41150
 Alpha  occ. eigenvalues --   -0.40890  -0.40463  -0.40001  -0.39833  -0.39386
 Alpha  occ. eigenvalues --   -0.39257  -0.39055  -0.38455  -0.37918  -0.37584
 Alpha  occ. eigenvalues --   -0.37378  -0.36727  -0.36572  -0.35706  -0.34888
 Alpha  occ. eigenvalues --   -0.34373  -0.33926  -0.31696  -0.31044  -0.29756
 Alpha  occ. eigenvalues --   -0.28885  -0.28591  -0.27619  -0.24932  -0.24475
 Alpha virt. eigenvalues --   -0.01490   0.00432   0.03574   0.03780   0.10156
 Alpha virt. eigenvalues --    0.11030   0.11643   0.12150   0.13199   0.13539
 Alpha virt. eigenvalues --    0.14199   0.14649   0.14775   0.15264   0.15600

 Mulliken charges:
               1
     1  C   -0.306190
     2  C   -0.307009
     3  C   -0.309633
     4  C   -0.059756
     5  C    0.057132
     6  C   -0.311808
     7  H    0.173820
     8  H    0.162766
     9  H    0.165327
    10  H    0.151002
    11  H    0.163110
    12  H    0.208705
    13  H    0.172767
    14  H    0.193074
    15  H    0.163541
    16  H    0.154024
    17  N   -0.430980
    18  C    0.068221
    19  C    0.063673
    20  C   -0.203045
    21  H    0.206729
    22  C   -0.208916
    23  H    0.245653
    24  C    0.447265
    25  H    0.191537
    26  H    0.211651
    27  N   -0.527061
    28  C   -0.172634
    29  H    0.169811
    30  H    0.232251
    31  C   -0.154395
    32  H    0.166912
    33  H    0.203218
    34  N   -0.816708
    35  S    1.253861
    36  O   -0.612296
    37  O   -0.607896
    38  C    0.087192
    39  C   -0.181455
    40  C   -0.189362
    41  C   -0.170814
    42  C   -0.163686
    43  C   -0.212195
    44  H    0.207664
    45  H    0.140807
    46  H    0.154806
    47  H    0.158534
    48  H    0.152469
    49  O   -0.549050
    50  H    0.449313
    51  C    0.726377
    52  O   -0.723567
    53  O   -0.718084
    54  H    0.445470
    55  C   -0.338343
    56  H    0.149562
    57  H    0.150402
    58  C   -0.092846
    59  H    0.140744
    60  H    0.147283
    61  C   -0.663037
    62  H    0.272283
    63  H    0.196256
    64  H    0.217421
    65  C   -0.294581
    66  H    0.138914
    67  H    0.146454
    68  C   -0.474412
    69  H    0.149185
    70  H    0.155592
    71  H    0.144283
    72  C   -0.331799
    73  H    0.187463
    74  H    0.163235
    75  C   -0.343589
    76  H    0.196017
    77  H    0.171371
 Sum of Mulliken charges =  -0.00000

 Dipole moment (field-independent basis, Debye):
    X=             -2.3764    Y=             -1.8469    Z=             -6.4198  Tot=              7.0903
 Quadrupole moment (field-independent basis, Debye-Ang):
   XX=           -205.3343   YY=           -223.1480   ZZ=           -219.7586
   XY=            -12.1902   XZ=             -5.3833   YZ=             10.0171

 Normal termination of Gaussian 16 at Thu Feb  7 15:50:14 2019.
