 Gaussian 16, Revision A.03,
 Gaussian 16:  ES64L-G16RevA.03 25-Dec-2016

 ------------------------------------------
 #p M062X/6-31G* em=gd3 force int=ultrafine
 ------------------------------------------

 -----
 Title
 -----
 Symbolic Z-matrix:
 Charge =  0 Multiplicity = 1

                         Standard orientation:
 ---------------------------------------------------------------------
 Center     Atomic      Atomic             Coordinates (Angstroms)
 Number     Number       Type             X           Y           Z
 ---------------------------------------------------------------------
      1          6           0       -4.791267    0.454398   -0.516186
      2          6           0       -4.997817   -0.845285   -1.299863
      3          6           0       -3.680731   -1.321332   -1.925045
      4          6           0       -2.657177   -1.522195   -0.813604
      5          6           0       -2.407740   -0.199950   -0.043669
      6          6           0       -3.721011    0.298661    0.569024
      7          1           0       -3.818009   -2.251970   -2.485919
      8          1           0       -5.380454   -1.624654   -0.627809
      9          1           0       -5.747322   -0.703878   -2.084823
     10          1           0       -4.483013    1.246215   -1.211523
     11          1           0       -5.735497    0.773660   -0.063198
     12          1           0       -3.031927   -2.270209   -0.108227
     13          1           0       -2.089557    0.544853   -0.784331
     14          1           0       -4.062635   -0.407469    1.333165
     15          1           0       -3.526364    1.260832    1.054827
     16          1           0       -3.334861   -0.552114   -2.628708
     17          7           0       -1.341699   -2.018217   -1.269367
     18          6           0       -0.659742   -1.343389   -2.233350
     19          6           0       -0.642699   -2.810168   -0.413049
     20          6           0        0.695175   -1.400843   -2.339822
     21          1           0       -1.255120   -0.723251   -2.892108
     22          6           0        0.713909   -2.905307   -0.445949
     23          1           0       -1.229092   -3.307451    0.352057
     24          6           0        1.453192   -2.097940   -1.351524
     25          1           0        1.182744   -0.835601   -3.122581
     26          1           0        1.202388   -3.495841    0.316010
     27          7           0        2.775582   -1.999561   -1.281024
     28          6           0        3.513099   -2.461302   -0.095268
     29          1           0        3.391944   -3.539629    0.039479
     30          1           0        3.126070   -1.918005    0.779355
     31          6           0        3.503215   -0.928180   -1.976570
     32          1           0        3.743648   -1.241353   -2.999999
     33          1           0        2.876342   -0.032556   -1.992009
     34          7           0       -1.283273   -0.293174    0.874659
     35         16           0       -1.325931   -1.130106    2.274749
     36          8           0       -2.539385   -1.952933    2.278033
     37          8           0       -0.041028   -1.810144    2.454895
     38          6           0       -0.576571    2.675777   -0.004824
     39          6           0       -0.104560    2.166732   -1.225109
     40          6           0       -0.883259    2.248675   -2.378109
     41          6           0       -2.150517    2.830900   -2.346513
     42          6           0       -2.632378    3.335419   -1.141729
     43          6           0       -1.847620    3.258000    0.009208
     44          1           0        0.851200    1.654353   -1.237409
     45          1           0       -0.489739    1.859727   -3.315158
     46          1           0       -2.751020    2.897187   -3.249606
     47          1           0       -3.616158    3.794496   -1.096011
     48          1           0       -2.232482    3.665267    0.942164
     49          8           0        0.722221    1.544106    1.861318
     50          1           0       -0.307853   -0.053590    0.554565
     51          6           0        1.875908    0.817568    1.237138
     52          8           0        1.488149    0.206264    0.138601
     53          8           0        2.248778   -0.061191    2.283195
     54          1           0        1.555628   -0.745656    2.296265
     55          6           0        3.070281    1.800653    1.131699
     56          1           0        3.004842    2.517545    1.961042
     57          1           0        3.971171    1.206256    1.330174
     58          6           0        0.255690    2.730083    1.280850
     59          1           0       -0.382956    3.193393    2.044516
     60          1           0        1.087262    3.432315    1.118559
     61          6           0       -1.446495    0.094099    3.557750
     62          1           0       -0.568549    0.736487    3.446317
     63          1           0       -2.372948    0.651650    3.409507
     64          1           0       -1.454618   -0.429168    4.515315
     65          6           0        3.252814    2.537595   -0.192166
     66          1           0        3.367303    1.806602   -1.001078
     67          1           0        2.362817    3.121014   -0.450913
     68          6           0        4.464826    3.466664   -0.151889
     69          1           0        4.616340    3.981703   -1.105520
     70          1           0        4.340357    4.228775    0.624546
     71          1           0        5.378628    2.909393    0.082053
     72          6           0        4.948692   -2.058804   -0.412306
     73          1           0        5.559077   -1.981818    0.489197
     74          1           0        5.407924   -2.792085   -1.084543
     75          6           0        4.755743   -0.716434   -1.121064
     76          1           0        4.540008    0.053449   -0.375638
     77          1           0        5.617449   -0.403899   -1.714576
 ---------------------------------------------------------------------

 SCF Done:  E(RM062X) =  -1991.35815826     A.U. after   14 cycles

 The electronic state is 1-A.
 Alpha  occ. eigenvalues --  -90.14258 -19.61852 -19.61824 -19.58635 -19.56675
 Alpha  occ. eigenvalues --  -19.51151 -14.85199 -14.80430 -14.75934 -10.63419
 Alpha  occ. eigenvalues --  -10.62789 -10.62232 -10.62192 -10.60776 -10.59423
 Alpha  occ. eigenvalues --  -10.58371 -10.58003 -10.57972 -10.57182 -10.56897
 Alpha  occ. eigenvalues --  -10.56719 -10.55688 -10.55638 -10.55094 -10.54857
 Alpha  occ. eigenvalues --  -10.54831 -10.54770 -10.54743 -10.54592 -10.54414
 Alpha  occ. eigenvalues --  -10.54365 -10.54337 -10.53051 -10.51436 -10.51400
 Alpha  occ. eigenvalues --  -10.49649  -8.45234  -6.37453  -6.37428  -6.37270
 Alpha  occ. eigenvalues --   -1.22079  -1.13598  -1.13433  -1.10333  -1.09334
 Alpha  occ. eigenvalues --   -1.05836  -1.01832  -0.99263  -0.95777  -0.95000
 Alpha  occ. eigenvalues --   -0.93518  -0.90317  -0.88761  -0.85968  -0.85726
 Alpha  occ. eigenvalues --   -0.84828  -0.84734  -0.84200  -0.83063  -0.82743
 Alpha  occ. eigenvalues --   -0.76680  -0.76224  -0.75826  -0.74331  -0.72845
 Alpha  occ. eigenvalues --   -0.71685  -0.68328  -0.68208  -0.67939  -0.67249
 Alpha  occ. eigenvalues --   -0.66727  -0.65249  -0.64863  -0.63532  -0.60538
 Alpha  occ. eigenvalues --   -0.60404  -0.59767  -0.59125  -0.57801  -0.57622
 Alpha  occ. eigenvalues --   -0.57205  -0.56450  -0.55803  -0.55163  -0.54212
 Alpha  occ. eigenvalues --   -0.53577  -0.52681  -0.52498  -0.52479  -0.51909
 Alpha  occ. eigenvalues --   -0.51557  -0.50997  -0.50669  -0.49895  -0.49515
 Alpha  occ. eigenvalues --   -0.49164  -0.48862  -0.48212  -0.48137  -0.47975
 Alpha  occ. eigenvalues --   -0.47700  -0.47484  -0.46934  -0.46409  -0.46101
 Alpha  occ. eigenvalues --   -0.44899  -0.44741  -0.44173  -0.43852  -0.43269
 Alpha  occ. eigenvalues --   -0.42543  -0.42161  -0.41371  -0.41281  -0.41078
 Alpha  occ. eigenvalues --   -0.40905  -0.40507  -0.39991  -0.39784  -0.39266
 Alpha  occ. eigenvalues --   -0.39245  -0.39084  -0.38427  -0.38011  -0.37625
 Alpha  occ. eigenvalues --   -0.37383  -0.36749  -0.36537  -0.35789  -0.34921
 Alpha  occ. eigenvalues --   -0.34397  -0.34006  -0.31669  -0.31151  -0.29781
 Alpha  occ. eigenvalues --   -0.28871  -0.28607  -0.27673  -0.24733  -0.24329
 Alpha virt. eigenvalues --   -0.01528   0.00388   0.03532   0.03739   0.10127
 Alpha virt. eigenvalues --    0.10942   0.11630   0.12249   0.13155   0.13471
 Alpha virt. eigenvalues --    0.14225   0.14526   0.14755   0.15223   0.15599

 Mulliken charges:
               1
     1  C   -0.306288
     2  C   -0.307221
     3  C   -0.309138
     4  C   -0.060289
     5  C    0.056137
     6  C   -0.311144
     7  H    0.174164
     8  H    0.162940
     9  H    0.165672
    10  H    0.150864
    11  H    0.163600
    12  H    0.209087
    13  H    0.173400
    14  H    0.193565
    15  H    0.163513
    16  H    0.154473
    17  N   -0.430918
    18  C    0.067414
    19  C    0.064386
    20  C   -0.201434
    21  H    0.206229
    22  C   -0.209579
    23  H    0.244826
    24  C    0.445906
    25  H    0.192253
    26  H    0.211432
    27  N   -0.525561
    28  C   -0.170214
    29  H    0.169704
    30  H    0.228205
    31  C   -0.154627
    32  H    0.164904
    33  H    0.206883
    34  N   -0.814177
    35  S    1.252295
    36  O   -0.611012
    37  O   -0.604998
    38  C    0.082652
    39  C   -0.185864
    40  C   -0.190025
    41  C   -0.171566
    42  C   -0.163808
    43  C   -0.211841
    44  H    0.213928
    45  H    0.140414
    46  H    0.154951
    47  H    0.158591
    48  H    0.152428
    49  O   -0.552183
    50  H    0.447526
    51  C    0.723142
    52  O   -0.720853
    53  O   -0.717743
    54  H    0.443500
    55  C   -0.338328
    56  H    0.148195
    57  H    0.151232
    58  C   -0.090041
    59  H    0.139254
    60  H    0.147997
    61  C   -0.663464
    62  H    0.274806
    63  H    0.196478
    64  H    0.217783
    65  C   -0.291516
    66  H    0.134170
    67  H    0.145931
    68  C   -0.473223
    69  H    0.148731
    70  H    0.153973
    71  H    0.145857
    72  C   -0.332023
    73  H    0.186850
    74  H    0.162779
    75  C   -0.342869
    76  H    0.198070
    77  H    0.170861
 Sum of Mulliken charges =  -0.00000

 Dipole moment (field-independent basis, Debye):
    X=             -2.6775    Y=             -1.9996    Z=             -6.3015  Tot=              7.1328
 Quadrupole moment (field-independent basis, Debye-Ang):
   XX=           -206.0367   YY=           -222.4252   ZZ=           -220.0813
   XY=            -12.5303   XZ=             -5.1517   YZ=             10.1037

 Normal termination of Gaussian 16 at Thu Feb  7 14:01:56 2019.
