 Gaussian 16, Revision A.03,
 Gaussian 16:  ES64L-G16RevA.03 25-Dec-2016

 ------------------------------------------
 #p M062X/6-31G* em=gd3 force int=ultrafine
 ------------------------------------------

 -----
 Title
 -----
 Symbolic Z-matrix:
 Charge =  0 Multiplicity = 1

                         Standard orientation:
 ---------------------------------------------------------------------
 Center     Atomic      Atomic             Coordinates (Angstroms)
 Number     Number       Type             X           Y           Z
 ---------------------------------------------------------------------
      1          6           0       -4.781422    0.397875   -0.564769
      2          6           0       -4.956497   -0.888221   -1.377969
      3          6           0       -3.622592   -1.333057   -1.990473
      4          6           0       -2.615863   -1.542640   -0.865442
      5          6           0       -2.394006   -0.229744   -0.070016
      6          6           0       -3.723992    0.237328    0.532122
      7          1           0       -3.737666   -2.253259   -2.573241
      8          1           0       -5.338992   -1.686646   -0.728630
      9          1           0       -5.694868   -0.740769   -2.172345
     10          1           0       -4.476425    1.208560   -1.239236
     11          1           0       -5.736851    0.692761   -0.118708
     12          1           0       -2.995230   -2.305509   -0.178638
     13          1           0       -2.076899    0.531285   -0.794534
     14          1           0       -4.065484   -0.488855    1.277419
     15          1           0       -3.551849    1.192783    1.038995
     16          1           0       -3.275800   -0.543997   -2.671413
     17          7           0       -1.288250   -2.019350   -1.305818
     18          6           0       -0.603362   -1.339670   -2.263452
     19          6           0       -0.590206   -2.801748   -0.439445
     20          6           0        0.753564   -1.382863   -2.354679
     21          1           0       -1.198032   -0.729933   -2.932490
     22          6           0        0.767863   -2.875743   -0.451948
     23          1           0       -1.180731   -3.309195    0.315716
     24          6           0        1.507402   -2.061088   -1.350379
     25          1           0        1.242672   -0.817791   -3.136397
     26          1           0        1.254351   -3.457621    0.317949
     27          7           0        2.827324   -1.941399   -1.259684
     28          6           0        3.552064   -2.362658   -0.050448
     29          1           0        3.446493   -3.439421    0.107735
     30          1           0        3.140340   -1.806680    0.804943
     31          6           0        3.551283   -0.881572   -1.973637
     32          1           0        3.803295   -1.216884   -2.987181
     33          1           0        2.916113    0.007069   -2.023058
     34          7           0       -1.280867   -0.322300    0.861269
     35         16           0       -1.340950   -1.173905    2.249059
     36          8           0       -2.533847   -2.026509    2.220019
     37          8           0       -0.045043   -1.826571    2.455390
     38          6           0       -0.623161    2.696675    0.055928
     39          6           0       -0.149013    2.227937   -1.179357
     40          6           0       -0.937025    2.320828   -2.324858
     41          6           0       -2.216157    2.875329   -2.270022
     42          6           0       -2.700994    3.338029   -1.049988
     43          6           0       -1.906461    3.249395    0.093522
     44          1           0        0.816783    1.737446   -1.212786
     45          1           0       -0.542438    1.963235   -3.273648
     46          1           0       -2.824346    2.951411   -3.167216
     47          1           0       -3.694579    3.773584   -0.986151
     48          1           0       -2.292873    3.625344    1.039077
     49          8           0        0.687834    1.555470    1.906801
     50          1           0       -0.294429   -0.071238    0.554171
     51          6           0        1.823083    0.829428    1.262858
     52          8           0        1.416144    0.223163    0.165605
     53          8           0        2.213420   -0.055491    2.297349
     54          1           0        1.518045   -0.737399    2.324631
     55          6           0        3.027564    1.799941    1.135873
     56          1           0        2.989230    2.517046    1.965820
     57          1           0        3.919432    1.187949    1.319668
     58          6           0        0.222137    2.745120    1.332109
     59          1           0       -0.403933    3.212104    2.103526
     60          1           0        1.057328    3.440092    1.160312
     61          6           0       -1.519449    0.034090    3.540954
     62          1           0       -0.657948    0.701714    3.451440
     63          1           0       -2.458031    0.567429    3.380507
     64          1           0       -1.530523   -0.497119    4.494106
     65          6           0        3.203702    2.528583   -0.193280
     66          1           0        3.163909    1.796439   -1.008284
     67          1           0        2.376575    3.223011   -0.382749
     68          6           0        4.522739    3.298333   -0.245773
     69          1           0        4.651885    3.818450   -1.200096
     70          1           0        4.567507    4.045788    0.552413
     71          1           0        5.375734    2.624627   -0.109151
     72          6           0        4.987561   -1.947776   -0.353451
     73          1           0        5.577143   -1.829303    0.557462
     74          1           0        5.472465   -2.697211   -0.988553
     75          6           0        4.794966   -0.633659   -1.114532
     76          1           0        4.574643    0.165553   -0.402574
     77          1           0        5.661291   -0.342240   -1.712118
 ---------------------------------------------------------------------

 SCF Done:  E(RM062X) =  -1991.35878282     A.U. after   14 cycles

 The electronic state is 1-A.
 Alpha  occ. eigenvalues --  -90.14113 -19.61727 -19.61706 -19.58740 -19.56720
 Alpha  occ. eigenvalues --  -19.51341 -14.85149 -14.80453 -14.75609 -10.63407
 Alpha  occ. eigenvalues --  -10.62779 -10.62297 -10.62140 -10.60692 -10.59282
 Alpha  occ. eigenvalues --  -10.58566 -10.57974 -10.57913 -10.57121 -10.56885
 Alpha  occ. eigenvalues --  -10.56671 -10.55634 -10.55583 -10.55138 -10.54914
 Alpha  occ. eigenvalues --  -10.54817 -10.54753 -10.54700 -10.54549 -10.54376
 Alpha  occ. eigenvalues --  -10.54300 -10.54271 -10.53092 -10.51580 -10.51525
 Alpha  occ. eigenvalues --  -10.49748  -8.45090  -6.37306  -6.37285  -6.37128
 Alpha  occ. eigenvalues --   -1.21940  -1.13625  -1.13502  -1.10195  -1.09350
 Alpha  occ. eigenvalues --   -1.05906  -1.01662  -0.99370  -0.95714  -0.94972
 Alpha  occ. eigenvalues --   -0.93474  -0.90276  -0.88751  -0.85881  -0.85817
 Alpha  occ. eigenvalues --   -0.84813  -0.84681  -0.84273  -0.83043  -0.82652
 Alpha  occ. eigenvalues --   -0.76654  -0.76334  -0.75833  -0.74397  -0.72748
 Alpha  occ. eigenvalues --   -0.71608  -0.68328  -0.68257  -0.67933  -0.67176
 Alpha  occ. eigenvalues --   -0.66759  -0.65214  -0.64867  -0.63521  -0.60572
 Alpha  occ. eigenvalues --   -0.60403  -0.59793  -0.58930  -0.57813  -0.57573
 Alpha  occ. eigenvalues --   -0.57153  -0.56429  -0.55750  -0.55165  -0.54180
 Alpha  occ. eigenvalues --   -0.53506  -0.52643  -0.52422  -0.52390  -0.51899
 Alpha  occ. eigenvalues --   -0.51539  -0.51053  -0.50867  -0.49858  -0.49588
 Alpha  occ. eigenvalues --   -0.49156  -0.48817  -0.48205  -0.48119  -0.48059
 Alpha  occ. eigenvalues --   -0.47645  -0.47446  -0.46899  -0.46459  -0.46098
 Alpha  occ. eigenvalues --   -0.44899  -0.44709  -0.44120  -0.43884  -0.43254
 Alpha  occ. eigenvalues --   -0.42478  -0.42106  -0.41464  -0.41389  -0.41154
 Alpha  occ. eigenvalues --   -0.40888  -0.40462  -0.40002  -0.39834  -0.39395
 Alpha  occ. eigenvalues --   -0.39257  -0.39054  -0.38455  -0.37914  -0.37583
 Alpha  occ. eigenvalues --   -0.37378  -0.36725  -0.36573  -0.35703  -0.34888
 Alpha  occ. eigenvalues --   -0.34372  -0.33922  -0.31699  -0.31038  -0.29753
 Alpha  occ. eigenvalues --   -0.28887  -0.28589  -0.27616  -0.24940  -0.24481
 Alpha virt. eigenvalues --   -0.01486   0.00435   0.03577   0.03783   0.10158
 Alpha virt. eigenvalues --    0.11032   0.11640   0.12145   0.13200   0.13541
 Alpha virt. eigenvalues --    0.14200   0.14654   0.14776   0.15269   0.15599

 Mulliken charges:
               1
     1  C   -0.306179
     2  C   -0.307000
     3  C   -0.309685
     4  C   -0.059694
     5  C    0.057154
     6  C   -0.311833
     7  H    0.173808
     8  H    0.162770
     9  H    0.165307
    10  H    0.150980
    11  H    0.163092
    12  H    0.208669
    13  H    0.172747
    14  H    0.193110
    15  H    0.163526
    16  H    0.154000
    17  N   -0.431065
    18  C    0.068332
    19  C    0.063697
    20  C   -0.203212
    21  H    0.206760
    22  C   -0.208912
    23  H    0.245684
    24  C    0.447462
    25  H    0.191483
    26  H    0.211669
    27  N   -0.527187
    28  C   -0.172868
    29  H    0.169817
    30  H    0.232590
    31  C   -0.154365
    32  H    0.167033
    33  H    0.202985
    34  N   -0.816767
    35  S    1.253893
    36  O   -0.612270
    37  O   -0.608049
    38  C    0.087509
    39  C   -0.181146
    40  C   -0.189318
    41  C   -0.170789
    42  C   -0.163704
    43  C   -0.212177
    44  H    0.207308
    45  H    0.140844
    46  H    0.154794
    47  H    0.158510
    48  H    0.152455
    49  O   -0.548840
    50  H    0.449297
    51  C    0.726556
    52  O   -0.723673
    53  O   -0.718130
    54  H    0.445492
    55  C   -0.338317
    56  H    0.149609
    57  H    0.150264
    58  C   -0.093078
    59  H    0.140827
    60  H    0.147250
    61  C   -0.663003
    62  H    0.272149
    63  H    0.196260
    64  H    0.217416
    65  C   -0.294737
    66  H    0.139293
    67  H    0.146446
    68  C   -0.474524
    69  H    0.149177
    70  H    0.155709
    71  H    0.144205
    72  C   -0.331792
    73  H    0.187487
    74  H    0.163269
    75  C   -0.343619
    76  H    0.195827
    77  H    0.171409
 Sum of Mulliken charges =  -0.00000

 Dipole moment (field-independent basis, Debye):
    X=             -2.3568    Y=             -1.8449    Z=             -6.4271  Tot=              7.0898
 Quadrupole moment (field-independent basis, Debye-Ang):
   XX=           -205.2962   YY=           -223.1817   ZZ=           -219.7513
   XY=            -12.1774   XZ=             -5.3838   YZ=             10.0251

 Normal termination of Gaussian 16 at Thu Feb  7 15:56:53 2019.
