 Gaussian 16, Revision A.03,
 Gaussian 16:  ES64L-G16RevA.03 25-Dec-2016

 ------------------------------------------
 #p M062X/6-31G* em=gd3 force int=ultrafine
 ------------------------------------------

 -----
 Title
 -----
 Symbolic Z-matrix:
 Charge =  0 Multiplicity = 1

                         Standard orientation:
 ---------------------------------------------------------------------
 Center     Atomic      Atomic             Coordinates (Angstroms)
 Number     Number       Type             X           Y           Z
 ---------------------------------------------------------------------
      1          6           0       -4.860923    0.489550   -0.551212
      2          6           0       -5.038560   -0.820062   -1.325302
      3          6           0       -3.702374   -1.294964   -1.908660
      4          6           0       -2.701973   -1.479434   -0.772269
      5          6           0       -2.491557   -0.149676   -0.007985
      6          6           0       -3.822251    0.347005    0.565349
      7          1           0       -3.818493   -2.230904   -2.465335
      8          1           0       -5.436381   -1.593369   -0.655124
      9          1           0       -5.765974   -0.692030   -2.132988
     10          1           0       -4.533328    1.275470   -1.245228
     11          1           0       -5.819193    0.810636   -0.130396
     12          1           0       -3.084202   -2.228313   -0.071060
     13          1           0       -2.156895    0.591379   -0.745228
     14          1           0       -4.179799   -0.353433    1.327450
     15          1           0       -3.642961    1.313815    1.048660
     16          1           0       -3.343038   -0.529243   -2.609248
     17          7           0       -1.375115   -1.967544   -1.202438
     18          6           0       -0.691812   -1.326573   -2.188595
     19          6           0       -0.680109   -2.754291   -0.338488
     20          6           0        0.659403   -1.419713   -2.316563
     21          1           0       -1.282014   -0.707335   -2.852107
     22          6           0        0.672854   -2.882951   -0.392200
     23          1           0       -1.265353   -3.227300    0.442457
     24          6           0        1.419518   -2.123813   -1.334742
     25          1           0        1.146642   -0.881756   -3.118736
     26          1           0        1.158666   -3.472765    0.372029
     27          7           0        2.745834   -2.081817   -1.301617
     28          6           0        3.484839   -2.562301   -0.123254
     29          1           0        3.344179   -3.638903    0.008498
     30          1           0        3.115218   -2.012746    0.754384
     31          6           0        3.507458   -1.047074   -2.020570
     32          1           0        3.762041   -1.402430   -3.026953
     33          1           0        2.907091   -0.135746   -2.072415
     34          7           0       -1.393747   -0.217941    0.942413
     35         16           0       -1.400424   -1.058149    2.345128
     36          8           0       -2.637572   -1.841519    2.374387
     37          8           0       -0.129130   -1.768761    2.484108
     38          6           0       -0.525036    2.648267   -0.089396
     39          6           0       -0.049326    2.063481   -1.272097
     40          6           0       -0.801827    2.130638   -2.444447
     41          6           0       -2.041990    2.768269   -2.464416
     42          6           0       -2.525640    3.347158   -1.292948
     43          6           0       -1.769324    3.286053   -0.122614
     44          1           0        0.887519    1.511982   -1.230032
     45          1           0       -0.408776    1.685090   -3.356372
     46          1           0       -2.621089    2.821045   -3.382263
     47          1           0       -3.488935    3.849884   -1.290254
     48          1           0       -2.154859    3.745830    0.785340
     49          8           0        0.733329    1.445509    1.725882
     50          1           0       -0.454634    0.116332    0.676328
     51          6           0        1.999348    0.780918    1.181771
     52          8           0        1.747768    0.188739    0.051199
     53          8           0        2.295533   -0.100184    2.251336
     54          1           0        1.589117   -0.770323    2.223194
     55          6           0        3.137664    1.827750    1.201146
     56          1           0        2.972214    2.529774    2.028736
     57          1           0        4.054107    1.279820    1.455353
     58          6           0        0.278383    2.665887    1.212627
     59          1           0       -0.378903    3.093363    1.983452
     60          1           0        1.110247    3.376568    1.099191
     61          6           0       -1.433286    0.176853    3.622616
     62          1           0       -0.543171    0.793081    3.463886
     63          1           0       -2.352397    0.755390    3.517656
     64          1           0       -1.402296   -0.339474    4.583589
     65          6           0        3.362993    2.579523   -0.108565
     66          1           0        3.606750    1.857482   -0.896750
     67          1           0        2.444001    3.073446   -0.444645
     68          6           0        4.476519    3.617452    0.020546
     69          1           0        4.661783    4.137919   -0.924234
     70          1           0        4.219413    4.371486    0.773086
     71          1           0        5.414592    3.147983    0.337671
     72          6           0        4.925572   -2.180771   -0.441450
     73          1           0        5.536306   -2.113517    0.460668
     74          1           0        5.376175   -2.918238   -1.115290
     75          6           0        4.744526   -0.835299   -1.145272
     76          1           0        4.501205   -0.073676   -0.399045
     77          1           0        5.615442   -0.516342   -1.721848
 ---------------------------------------------------------------------

 SCF Done:  E(RM062X) =  -1991.35623400     A.U. after   15 cycles

 The electronic state is 1-A.
 Alpha  occ. eigenvalues --  -90.14778 -19.62350 -19.62191 -19.58520 -19.56676
 Alpha  occ. eigenvalues --  -19.50470 -14.85280 -14.80171 -14.76797 -10.63264
 Alpha  occ. eigenvalues --  -10.62715 -10.62217 -10.61952 -10.61077 -10.59851
 Alpha  occ. eigenvalues --  -10.57945 -10.57866 -10.57707 -10.57093 -10.56949
 Alpha  occ. eigenvalues --  -10.56906 -10.56149 -10.55880 -10.55079 -10.54997
 Alpha  occ. eigenvalues --  -10.54908 -10.54769 -10.54748 -10.54664 -10.54539
 Alpha  occ. eigenvalues --  -10.54412 -10.54266 -10.52986 -10.51120 -10.51031
 Alpha  occ. eigenvalues --  -10.49409  -8.45747  -6.37974  -6.37932  -6.37785
 Alpha  occ. eigenvalues --   -1.22561  -1.13583  -1.13004  -1.10796  -1.09038
 Alpha  occ. eigenvalues --   -1.05724  -1.02480  -0.99286  -0.95892  -0.95100
 Alpha  occ. eigenvalues --   -0.93547  -0.90243  -0.88667  -0.86453  -0.85331
 Alpha  occ. eigenvalues --   -0.84903  -0.84847  -0.83853  -0.83168  -0.83070
 Alpha  occ. eigenvalues --   -0.76657  -0.75919  -0.75668  -0.74246  -0.73240
 Alpha  occ. eigenvalues --   -0.71808  -0.68233  -0.68163  -0.67816  -0.67514
 Alpha  occ. eigenvalues --   -0.66501  -0.65474  -0.64802  -0.63449  -0.60493
 Alpha  occ. eigenvalues --   -0.60312  -0.59879  -0.59536  -0.57843  -0.57684
 Alpha  occ. eigenvalues --   -0.57266  -0.56486  -0.55801  -0.55129  -0.54334
 Alpha  occ. eigenvalues --   -0.53610  -0.53034  -0.52685  -0.52471  -0.52055
 Alpha  occ. eigenvalues --   -0.51683  -0.50840  -0.50270  -0.49924  -0.49343
 Alpha  occ. eigenvalues --   -0.49175  -0.48999  -0.48360  -0.48129  -0.47918
 Alpha  occ. eigenvalues --   -0.47742  -0.47605  -0.47153  -0.46177  -0.45885
 Alpha  occ. eigenvalues --   -0.45149  -0.44923  -0.44331  -0.43839  -0.43260
 Alpha  occ. eigenvalues --   -0.42562  -0.42251  -0.41131  -0.41025  -0.40890
 Alpha  occ. eigenvalues --   -0.40689  -0.40498  -0.39979  -0.39844  -0.39343
 Alpha  occ. eigenvalues --   -0.39210  -0.38978  -0.38471  -0.38334  -0.37864
 Alpha  occ. eigenvalues --   -0.37291  -0.36545  -0.36400  -0.36076  -0.34979
 Alpha  occ. eigenvalues --   -0.34449  -0.34213  -0.31864  -0.31258  -0.29897
 Alpha  occ. eigenvalues --   -0.29010  -0.28714  -0.27752  -0.24029  -0.23886
 Alpha virt. eigenvalues --   -0.01345   0.00456   0.03342   0.03646   0.10126
 Alpha virt. eigenvalues --    0.10620   0.11358   0.12502   0.13180   0.13243
 Alpha virt. eigenvalues --    0.14109   0.14391   0.14835   0.15425   0.15560

 Mulliken charges:
               1
     1  C   -0.306405
     2  C   -0.307744
     3  C   -0.310582
     4  C   -0.058793
     5  C    0.058547
     6  C   -0.308479
     7  H    0.175426
     8  H    0.163164
     9  H    0.166817
    10  H    0.151037
    11  H    0.165042
    12  H    0.206825
    13  H    0.175815
    14  H    0.194371
    15  H    0.162987
    16  H    0.156125
    17  N   -0.436843
    18  C    0.074053
    19  C    0.071692
    20  C   -0.205694
    21  H    0.204371
    22  C   -0.215364
    23  H    0.243201
    24  C    0.449387
    25  H    0.192454
    26  H    0.210501
    27  N   -0.520520
    28  C   -0.167862
    29  H    0.167444
    30  H    0.224646
    31  C   -0.148429
    32  H    0.161456
    33  H    0.205993
    34  N   -0.799624
    35  S    1.244121
    36  O   -0.603899
    37  O   -0.594107
    38  C    0.061222
    39  C   -0.195523
    40  C   -0.191605
    41  C   -0.172547
    42  C   -0.165338
    43  C   -0.207023
    44  H    0.228180
    45  H    0.140926
    46  H    0.155496
    47  H    0.159009
    48  H    0.152927
    49  O   -0.575365
    50  H    0.439320
    51  C    0.718923
    52  O   -0.709542
    53  O   -0.709855
    54  H    0.433549
    55  C   -0.339843
    56  H    0.144101
    57  H    0.149914
    58  C   -0.083636
    59  H    0.134098
    60  H    0.152955
    61  C   -0.664738
    62  H    0.273976
    63  H    0.199468
    64  H    0.221078
    65  C   -0.286275
    66  H    0.138431
    67  H    0.141594
    68  C   -0.474158
    69  H    0.147801
    70  H    0.150557
    71  H    0.147616
    72  C   -0.333547
    73  H    0.185545
    74  H    0.160540
    75  C   -0.339901
    76  H    0.203486
    77  H    0.167052
 Sum of Mulliken charges =  -0.00000

 Dipole moment (field-independent basis, Debye):
    X=             -3.4990    Y=             -1.9988    Z=             -5.8669  Tot=              7.1175
 Quadrupole moment (field-independent basis, Debye-Ang):
   XX=           -208.0856   YY=           -221.7533   ZZ=           -219.1811
   XY=            -13.1297   XZ=             -4.3335   YZ=             10.5152

 Normal termination of Gaussian 16 at Thu Feb  7 11:28:20 2019.
