 Gaussian 16, Revision A.03,
 Gaussian 16:  ES64L-G16RevA.03 25-Dec-2016

 ------------------------------------------
 #p M062X/6-31G* em=gd3 force int=ultrafine
 ------------------------------------------

 -----
 Title
 -----
 Symbolic Z-matrix:
 Charge =  0 Multiplicity = 1

                         Standard orientation:
 ---------------------------------------------------------------------
 Center     Atomic      Atomic             Coordinates (Angstroms)
 Number     Number       Type             X           Y           Z
 ---------------------------------------------------------------------
      1          6           0       -4.783239    0.282472   -0.707528
      2          6           0       -4.901594   -1.040523   -1.470011
      3          6           0       -3.538306   -1.475462   -2.021079
      4          6           0       -2.561463   -1.611843   -0.858813
      5          6           0       -2.398194   -0.262812   -0.110631
      6          6           0       -3.759752    0.191713    0.428560
      7          1           0       -3.611340   -2.421434   -2.568446
      8          1           0       -5.285157   -1.820362   -0.799130
      9          1           0       -5.617214   -0.945777   -2.292763
     10          1           0       -4.475084    1.071966   -1.405447
     11          1           0       -5.759445    0.572134   -0.305094
     12          1           0       -2.942072   -2.356372   -0.152621
     13          1           0       -2.075235    0.476922   -0.854695
     14          1           0       -4.108730   -0.514856    1.188673
     15          1           0       -3.629355    1.169246    0.904309
     16          1           0       -3.190993   -0.705905   -2.723590
     17          7           0       -1.211020   -2.072349   -1.242593
     18          6           0       -0.525451   -1.441191   -2.231554
     19          6           0       -0.512013   -2.788608   -0.321047
     20          6           0        0.832876   -1.470929   -2.306598
     21          1           0       -1.120866   -0.885296   -2.945064
     22          6           0        0.846970   -2.838466   -0.311701
     23          1           0       -1.104584   -3.263511    0.453309
     24          6           0        1.584473   -2.072820   -1.253775
     25          1           0        1.322197   -0.950115   -3.118186
     26          1           0        1.333336   -3.362575    0.498857
     27          7           0        2.902807   -1.933678   -1.162517
     28          6           0        3.627493   -2.271014    0.072965
     29          1           0        3.528670   -3.336524    0.298333
     30          1           0        3.208719   -1.667544    0.892476
     31          6           0        3.624349   -0.926923   -1.949843
     32          1           0        3.874036   -1.331815   -2.938313
     33          1           0        2.989102   -0.044057   -2.065603
     34          7           0       -1.314347   -0.288784    0.858714
     35         16           0       -1.404204   -1.083733    2.277101
     36          8           0       -2.585446   -1.952620    2.255247
     37          8           0       -0.108252   -1.713335    2.547899
     38          6           0       -0.661501    2.708204    0.019678
     39          6           0       -0.190378    2.247101   -1.219516
     40          6           0       -0.994019    2.313218   -2.355403
     41          6           0       -2.287753    2.831320   -2.285388
     42          6           0       -2.771366    3.282129   -1.060782
     43          6           0       -1.959646    3.222221    0.072548
     44          1           0        0.789214    1.786043   -1.266113
     45          1           0       -0.601618    1.963663   -3.308332
     46          1           0       -2.908884    2.887087   -3.175136
     47          1           0       -3.776398    3.687076   -0.986134
     48          1           0       -2.343887    3.590736    1.021492
     49          8           0        0.665546    1.616336    1.888162
     50          1           0       -0.317505   -0.047492    0.557866
     51          6           0        1.780340    0.864065    1.244494
     52          8           0        1.351087    0.245362    0.162209
     53          8           0        2.175249   -0.006084    2.290480
     54          1           0        1.456685   -0.661533    2.364466
     55          6           0        3.001613    1.809500    1.082138
     56          1           0        2.987134    2.544100    1.897294
     57          1           0        3.882463    1.182346    1.269090
     58          6           0        0.204906    2.792089    1.279677
     59          1           0       -0.401825    3.294397    2.044974
     60          1           0        1.047064    3.468469    1.069184
     61          6           0       -1.629974    0.177739    3.509276
     62          1           0       -0.770623    0.847280    3.414953
     63          1           0       -2.567081    0.695596    3.297746
     64          1           0       -1.664713   -0.309908    4.484793
     65          6           0        3.179712    2.504597   -0.264634
     66          1           0        3.095403    1.757292   -1.061613
     67          1           0        2.377015    3.226379   -0.453640
     68          6           0        4.524918    3.222947   -0.358786
     69          1           0        4.654626    3.716626   -1.326989
     70          1           0        4.614632    3.985754    0.421889
     71          1           0        5.356406    2.521380   -0.223709
     72          6           0        5.062313   -1.871206   -0.255182
     73          1           0        5.647711   -1.681998    0.646502
     74          1           0        5.553992   -2.663528   -0.830013
     75          6           0        4.870997   -0.618442   -1.114460
     76          1           0        4.659268    0.235828   -0.466890
     77          1           0        5.736791   -0.378044   -1.735122
 ---------------------------------------------------------------------

 SCF Done:  E(RM062X) =  -1991.35897261     A.U. after   14 cycles

 The electronic state is 1-A.
 Alpha  occ. eigenvalues --  -90.14038 -19.61654 -19.61646 -19.58809 -19.56751
 Alpha  occ. eigenvalues --  -19.51394 -14.85110 -14.80457 -14.75426 -10.63364
 Alpha  occ. eigenvalues --  -10.62736 -10.62333 -10.62034 -10.60638 -10.59189
 Alpha  occ. eigenvalues --  -10.58763 -10.57884 -10.57866 -10.57032 -10.56867
 Alpha  occ. eigenvalues --  -10.56651 -10.55592 -10.55585 -10.55215 -10.55087
 Alpha  occ. eigenvalues --  -10.54721 -10.54701 -10.54603 -10.54449 -10.54293
 Alpha  occ. eigenvalues --  -10.54215 -10.54157 -10.53091 -10.51692 -10.51591
 Alpha  occ. eigenvalues --  -10.49813  -8.45017  -6.37232  -6.37211  -6.37055
 Alpha  occ. eigenvalues --   -1.21870  -1.13670  -1.13444  -1.10116  -1.09358
 Alpha  occ. eigenvalues --   -1.05901  -1.01565  -0.99427  -0.95663  -0.94900
 Alpha  occ. eigenvalues --   -0.93449  -0.90212  -0.88755  -0.85933  -0.85807
 Alpha  occ. eigenvalues --   -0.84756  -0.84623  -0.84350  -0.82982  -0.82588
 Alpha  occ. eigenvalues --   -0.76631  -0.76376  -0.75826  -0.74378  -0.72690
 Alpha  occ. eigenvalues --   -0.71544  -0.68351  -0.68295  -0.67887  -0.67131
 Alpha  occ. eigenvalues --   -0.66747  -0.65170  -0.64859  -0.63518  -0.60569
 Alpha  occ. eigenvalues --   -0.60403  -0.59791  -0.58803  -0.57853  -0.57529
 Alpha  occ. eigenvalues --   -0.57114  -0.56413  -0.55673  -0.55156  -0.54164
 Alpha  occ. eigenvalues --   -0.53425  -0.52616  -0.52380  -0.52336  -0.51839
 Alpha  occ. eigenvalues --   -0.51509  -0.51097  -0.50950  -0.49834  -0.49584
 Alpha  occ. eigenvalues --   -0.49159  -0.48797  -0.48211  -0.48103  -0.48057
 Alpha  occ. eigenvalues --   -0.47606  -0.47414  -0.46887  -0.46469  -0.46083
 Alpha  occ. eigenvalues --   -0.44936  -0.44639  -0.44056  -0.43871  -0.43241
 Alpha  occ. eigenvalues --   -0.42422  -0.42068  -0.41593  -0.41444  -0.41210
 Alpha  occ. eigenvalues --   -0.40871  -0.40428  -0.40020  -0.39863  -0.39545
 Alpha  occ. eigenvalues --   -0.39232  -0.39036  -0.38415  -0.37861  -0.37577
 Alpha  occ. eigenvalues --   -0.37339  -0.36731  -0.36559  -0.35668  -0.34866
 Alpha  occ. eigenvalues --   -0.34327  -0.33864  -0.31778  -0.30939  -0.29678
 Alpha  occ. eigenvalues --   -0.28878  -0.28511  -0.27537  -0.24995  -0.24529
 Alpha virt. eigenvalues --   -0.01368   0.00528   0.03656   0.03879   0.10245
 Alpha virt. eigenvalues --    0.11071   0.11528   0.12066   0.13217   0.13534
 Alpha virt. eigenvalues --    0.14237   0.14680   0.14842   0.15402   0.15606

 Mulliken charges:
               1
     1  C   -0.306045
     2  C   -0.306846
     3  C   -0.310514
     4  C   -0.058799
     5  C    0.056672
     6  C   -0.311612
     7  H    0.173731
     8  H    0.162917
     9  H    0.164997
    10  H    0.150312
    11  H    0.162833
    12  H    0.208321
    13  H    0.172254
    14  H    0.193894
    15  H    0.163250
    16  H    0.153560
    17  N   -0.433255
    18  C    0.070777
    19  C    0.065304
    20  C   -0.206209
    21  H    0.207146
    22  C   -0.209575
    23  H    0.245858
    24  C    0.452723
    25  H    0.190604
    26  H    0.211765
    27  N   -0.530410
    28  C   -0.177630
    29  H    0.169953
    30  H    0.239081
    31  C   -0.154155
    32  H    0.168794
    33  H    0.200096
    34  N   -0.817400
    35  S    1.254170
    36  O   -0.611361
    37  O   -0.609951
    38  C    0.092921
    39  C   -0.176579
    40  C   -0.188528
    41  C   -0.170344
    42  C   -0.163609
    43  C   -0.211993
    44  H    0.201549
    45  H    0.141665
    46  H    0.154335
    47  H    0.157994
    48  H    0.151762
    49  O   -0.547738
    50  H    0.449939
    51  C    0.728692
    52  O   -0.724401
    53  O   -0.718277
    54  H    0.445975
    55  C   -0.337188
    56  H    0.150533
    57  H    0.147274
    58  C   -0.095710
    59  H    0.141372
    60  H    0.146413
    61  C   -0.662537
    62  H    0.269924
    63  H    0.196356
    64  H    0.217321
    65  C   -0.295849
    66  H    0.142060
    67  H    0.147088
    68  C   -0.476542
    69  H    0.149602
    70  H    0.156476
    71  H    0.144133
    72  C   -0.331911
    73  H    0.187484
    74  H    0.163919
    75  C   -0.344664
    76  H    0.193658
    77  H    0.172179
 Sum of Mulliken charges =  -0.00000

 Dipole moment (field-independent basis, Debye):
    X=             -1.9623    Y=             -2.0161    Z=             -6.4913  Tot=              7.0748
 Quadrupole moment (field-independent basis, Debye-Ang):
   XX=           -204.4249   YY=           -223.0778   ZZ=           -220.0586
   XY=            -12.0946   XZ=             -5.0582   YZ=             10.3328

 Normal termination of Gaussian 16 at Thu Feb  7 17:45:04 2019.
