 Gaussian 16, Revision A.03,
 Gaussian 16:  ES64L-G16RevA.03 25-Dec-2016

 ------------------------------------------
 #p M062X/6-31G* em=gd3 force int=ultrafine
 ------------------------------------------

 -----
 Title
 -----
 Symbolic Z-matrix:
 Charge =  0 Multiplicity = 1

                         Standard orientation:
 ---------------------------------------------------------------------
 Center     Atomic      Atomic             Coordinates (Angstroms)
 Number     Number       Type             X           Y           Z
 ---------------------------------------------------------------------
      1          6           0       -4.865023    0.035403   -0.415843
      2          6           0       -4.887409   -1.240642   -1.262883
      3          6           0       -3.502706   -1.525638   -1.856744
      4          6           0       -2.497646   -1.651948   -0.716612
      5          6           0       -2.416690   -0.336447    0.108108
      6          6           0       -3.807480   -0.040179    0.689495
      7          1           0       -3.511133   -2.438379   -2.463516
      8          1           0       -5.193850   -2.091082   -0.639710
      9          1           0       -5.622385   -1.154126   -2.069865
     10          1           0       -4.635887    0.890811   -1.066840
     11          1           0       -5.855452    0.216327    0.015356
     12          1           0       -2.802770   -2.464218   -0.051765
     13          1           0       -2.210717    0.453224   -0.629430
     14          1           0       -4.067982   -0.819875    1.416557
     15          1           0       -3.748727    0.914341    1.226785
     16          1           0       -3.233247   -0.686276   -2.512752
     17          7           0       -1.127732   -1.996832   -1.161974
     18          6           0       -0.522554   -1.292711   -2.145674
     19          6           0       -0.366743   -2.757149   -0.339892
     20          6           0        0.830642   -1.310132   -2.326390
     21          1           0       -1.170819   -0.690367   -2.769008
     22          6           0        0.992366   -2.821793   -0.455856
     23          1           0       -0.897486   -3.270035    0.454983
     24          6           0        1.658026   -2.017438   -1.411212
     25          1           0        1.256996   -0.730736   -3.134680
     26          1           0        1.534796   -3.406565    0.273778
     27          7           0        2.993824   -1.916193   -1.434784
     28          6           0        3.802156   -2.435375   -0.325060
     29          1           0        3.748848   -3.527398   -0.284393
     30          1           0        3.420094   -2.022775    0.619280
     31          6           0        3.679947   -0.822501   -2.138878
     32          1           0        3.932583   -1.130447   -3.161020
     33          1           0        3.034454    0.059184   -2.168134
     34          7           0       -1.294924   -0.292059    1.024459
     35         16           0       -1.254912   -1.250984    2.278443
     36          8           0       -2.235914   -2.358235    2.228041
     37          8           0        0.146681   -1.691339    2.519530
     38          6           0       -1.203900    2.841384   -0.175942
     39          6           0       -0.433982    2.202757   -1.152852
     40          6           0       -0.920489    2.082863   -2.453196
     41          6           0       -2.186579    2.563134   -2.786655
     42          6           0       -2.963700    3.182105   -1.809221
     43          6           0       -2.469259    3.322003   -0.514825
     44          1           0        0.520976    1.760882   -0.874328
     45          1           0       -0.307360    1.603509   -3.213118
     46          1           0       -2.565642    2.459111   -3.799049
     47          1           0       -3.955290    3.552879   -2.052417
     48          1           0       -3.079133    3.798871    0.249889
     49          8           0        0.186762    1.955558    1.608301
     50          1           0       -0.273548    1.102465    1.360555
     51          6           0        2.432695    0.666151    1.261650
     52          8           0        2.147979    0.219594    0.163001
     53          8           0        2.164524    0.049172    2.399355
     54          1           0        1.489523   -0.673432    2.267190
     55          6           0        3.186478    1.959107    1.467643
     56          1           0        2.725544    2.468764    2.318339
     57          1           0        4.215028    1.707800    1.765096
     58          6           0       -0.682787    2.986517    1.239876
     59          1           0       -1.543243    3.063920    1.926819
     60          1           0       -0.121790    3.928282    1.328803
     61          6           0       -1.652846   -0.252497    3.710457
     62          1           0       -0.962851    0.594537    3.712299
     63          1           0       -2.684488    0.090428    3.610710
     64          1           0       -1.530731   -0.858396    4.609365
     65          6           0        3.178061    2.842013    0.226885
     66          1           0        3.596168    2.286550   -0.621491
     67          1           0        2.135833    3.058497   -0.032271
     68          6           0        3.947380    4.142443    0.437344
     69          1           0        3.933923    4.763207   -0.463150
     70          1           0        3.509617    4.726541    1.253585
     71          1           0        4.994044    3.946516    0.694995
     72          6           0        5.204986   -1.919976   -0.634472
     73          1           0        5.818854   -1.844518    0.265247
     74          1           0        5.706612   -2.591657   -1.338831
     75          6           0        4.927030   -0.564548   -1.288981
     76          1           0        4.677031    0.172619   -0.520187
     77          1           0        5.763908   -0.187106   -1.880112
 ---------------------------------------------------------------------

 SCF Done:  E(RM062X) =  -1991.39030135     A.U. after   15 cycles

 The electronic state is 1-A.
 Alpha  occ. eigenvalues --  -90.10396 -19.63393 -19.60109 -19.59334 -19.58624
 Alpha  occ. eigenvalues --  -19.58378 -14.84817 -14.80533 -14.69436 -10.65449
 Alpha  occ. eigenvalues --  -10.63244 -10.62385 -10.61528 -10.59160 -10.59129
 Alpha  occ. eigenvalues --  -10.59022 -10.57815 -10.57437 -10.56853 -10.56649
 Alpha  occ. eigenvalues --  -10.56083 -10.55777 -10.55489 -10.54963 -10.54915
 Alpha  occ. eigenvalues --  -10.54854 -10.54572 -10.54535 -10.54486 -10.53790
 Alpha  occ. eigenvalues --  -10.53735 -10.53557 -10.53123 -10.52940 -10.52642
 Alpha  occ. eigenvalues --  -10.52507  -8.41362  -6.33600  -6.33507  -6.33427
 Alpha  occ. eigenvalues --   -1.19134  -1.17923  -1.12949  -1.10368  -1.09854
 Alpha  occ. eigenvalues --   -1.09175  -1.06191  -0.97560  -0.95249  -0.94829
 Alpha  occ. eigenvalues --   -0.92193  -0.89861  -0.88601  -0.87994  -0.85018
 Alpha  occ. eigenvalues --   -0.84966  -0.83649  -0.83508  -0.83303  -0.80221
 Alpha  occ. eigenvalues --   -0.79088  -0.76369  -0.75671  -0.74662  -0.70949
 Alpha  occ. eigenvalues --   -0.70195  -0.69042  -0.68743  -0.68370  -0.67986
 Alpha  occ. eigenvalues --   -0.65736  -0.64725  -0.63960  -0.63433  -0.61656
 Alpha  occ. eigenvalues --   -0.60282  -0.59408  -0.58951  -0.58371  -0.56175
 Alpha  occ. eigenvalues --   -0.55476  -0.55158  -0.55066  -0.54022  -0.53662
 Alpha  occ. eigenvalues --   -0.53435  -0.53084  -0.52336  -0.51980  -0.51731
 Alpha  occ. eigenvalues --   -0.51170  -0.51013  -0.50612  -0.50247  -0.49831
 Alpha  occ. eigenvalues --   -0.49625  -0.49433  -0.48852  -0.48370  -0.48012
 Alpha  occ. eigenvalues --   -0.47760  -0.47171  -0.46968  -0.46884  -0.45953
 Alpha  occ. eigenvalues --   -0.45878  -0.45254  -0.43968  -0.43652  -0.43423
 Alpha  occ. eigenvalues --   -0.42757  -0.42431  -0.42277  -0.41919  -0.41873
 Alpha  occ. eigenvalues --   -0.41161  -0.40824  -0.40598  -0.39925  -0.39518
 Alpha  occ. eigenvalues --   -0.39375  -0.39178  -0.38708  -0.38375  -0.37793
 Alpha  occ. eigenvalues --   -0.37374  -0.36277  -0.35928  -0.35380  -0.35108
 Alpha  occ. eigenvalues --   -0.34421  -0.33155  -0.32122  -0.31696  -0.31510
 Alpha  occ. eigenvalues --   -0.29831  -0.28885  -0.28324  -0.27548  -0.25449
 Alpha virt. eigenvalues --   -0.01022   0.00644   0.03342   0.03819   0.09092
 Alpha virt. eigenvalues --    0.10118   0.10950   0.11740   0.13009   0.13406
 Alpha virt. eigenvalues --    0.13806   0.14193   0.15219   0.15540   0.15733

 Mulliken charges:
               1
     1  C   -0.303986
     2  C   -0.304214
     3  C   -0.309821
     4  C   -0.073494
     5  C    0.061907
     6  C   -0.305300
     7  H    0.165777
     8  H    0.160899
     9  H    0.159198
    10  H    0.146744
    11  H    0.156630
    12  H    0.213202
    13  H    0.141394
    14  H    0.179983
    15  H    0.148486
    16  H    0.151384
    17  N   -0.424691
    18  C    0.100601
    19  C    0.084489
    20  C   -0.228093
    21  H    0.205704
    22  C   -0.227336
    23  H    0.264119
    24  C    0.428714
    25  H    0.188297
    26  H    0.206703
    27  N   -0.529602
    28  C   -0.156652
    29  H    0.178443
    30  H    0.198889
    31  C   -0.147424
    32  H    0.169502
    33  H    0.196570
    34  N   -0.754849
    35  S    1.249048
    36  O   -0.647091
    37  O   -0.671013
    38  C    0.048967
    39  C   -0.177092
    40  C   -0.186991
    41  C   -0.170151
    42  C   -0.162537
    43  C   -0.197225
    44  H    0.201007
    45  H    0.139765
    46  H    0.156463
    47  H    0.161748
    48  H    0.156142
    49  O   -0.709283
    50  H    0.479986
    51  C    0.642741
    52  O   -0.523894
    53  O   -0.643391
    54  H    0.485534
    55  C   -0.366625
    56  H    0.199523
    57  H    0.163857
    58  C   -0.069917
    59  H    0.128958
    60  H    0.161543
    61  C   -0.655289
    62  H    0.217986
    63  H    0.188296
    64  H    0.208283
    65  C   -0.286870
    66  H    0.142899
    67  H    0.168970
    68  C   -0.480508
    69  H    0.158222
    70  H    0.158771
    71  H    0.149446
    72  C   -0.337498
    73  H    0.183871
    74  H    0.170107
    75  C   -0.335556
    76  H    0.183221
    77  H    0.173408
 Sum of Mulliken charges =  -0.00000

 Dipole moment (field-independent basis, Debye):
    X=              1.5826    Y=             -0.4205    Z=             -6.4801  Tot=              6.6838
 Quadrupole moment (field-independent basis, Debye-Ang):
   XX=           -197.6408   YY=           -223.8269   ZZ=           -221.4978
   XY=            -12.2210   XZ=             -1.5813   YZ=             12.2273

 Normal termination of Gaussian 16 at Fri Feb  8 01:26:19 2019.
