 Gaussian 16, Revision A.03,
 Gaussian 16:  ES64L-G16RevA.03 25-Dec-2016

 ------------------------------------------
 #p M062X/6-31G* em=gd3 force int=ultrafine
 ------------------------------------------

 -----
 Title
 -----
 Symbolic Z-matrix:
 Charge =  0 Multiplicity = 1

                         Standard orientation:
 ---------------------------------------------------------------------
 Center     Atomic      Atomic             Coordinates (Angstroms)
 Number     Number       Type             X           Y           Z
 ---------------------------------------------------------------------
      1          6           0       -4.845379    0.383309   -0.502710
      2          6           0       -4.978318   -0.886638   -1.348620
      3          6           0       -3.622953   -1.292227   -1.940600
      4          6           0       -2.634638   -1.511015   -0.802780
      5          6           0       -2.458370   -0.227907    0.049440
      6          6           0       -3.816265    0.205678    0.616790
      7          1           0       -3.708169   -2.197319   -2.551600
      8          1           0       -5.360462   -1.705664   -0.725290
      9          1           0       -5.699924   -0.736436   -2.158020
     10          1           0       -4.528089    1.211860   -1.151640
     11          1           0       -5.818382    0.659081   -0.082890
     12          1           0       -2.995636   -2.310143   -0.148040
     13          1           0       -2.148646    0.558146   -0.657440
     14          1           0       -4.160780   -0.540959    1.341450
     15          1           0       -3.668505    1.152002    1.151890
     16          1           0       -3.279726   -0.475821   -2.590920
     17          7           0       -1.285221   -1.937086   -1.247750
     18          6           0       -0.626971   -1.249334   -2.210840
     19          6           0       -0.569545   -2.730809   -0.414950
     20          6           0        0.728343   -1.315281   -2.359320
     21          1           0       -1.233859   -0.614651   -2.843470
     22          6           0        0.789141   -2.843928   -0.497050
     23          1           0       -1.136160   -3.240082    0.356960
     24          6           0        1.508681   -2.055076   -1.427170
     25          1           0        1.194469   -0.739442   -3.148200
     26          1           0        1.289997   -3.451393    0.243750
     27          7           0        2.846971   -1.993944   -1.410790
     28          6           0        3.598934   -2.504358   -0.256150
     29          1           0        3.498256   -3.589915   -0.175310
     30          1           0        3.209229   -2.035689    0.658530
     31          6           0        3.584458   -0.917133   -2.093060
     32          1           0        3.854983   -1.231309   -3.108000
     33          1           0        2.967781   -0.015700   -2.136520
     34          7           0       -1.356232   -0.347092    0.967420
     35         16           0       -1.390872   -1.232693    2.282770
     36          8           0       -2.533723   -2.166429    2.296750
     37          8           0       -0.049248   -1.839121    2.478300
     38          6           0       -0.747090    2.774498   -0.063770
     39          6           0       -0.164398    2.133648   -1.165090
     40          6           0       -0.809669    2.158671   -2.399080
     41          6           0       -2.051876    2.780631   -2.538440
     42          6           0       -2.641229    3.395030   -1.436440
     43          6           0       -1.983159    3.394189   -0.210430
     44          1           0        0.765717    1.582277   -1.034870
     45          1           0       -0.345996    1.682461   -3.260840
     46          1           0       -2.558205    2.788170   -3.498650
     47          1           0       -3.612235    3.871631   -1.522890
     48          1           0       -2.434576    3.861398    0.661260
     49          8           0        0.265307    1.429462    1.641140
     50          1           0       -0.408908    0.719801    1.225020
     51          6           0        2.379030    0.575466    1.172840
     52          8           0        2.085521    0.155833    0.068380
     53          8           0        2.255171   -0.143501    2.288550
     54          1           0        1.531404   -0.808599    2.177780
     55          6           0        3.113495    1.877760    1.397340
     56          1           0        2.618074    2.433513    2.201700
     57          1           0        4.100641    1.594344    1.785530
     58          6           0       -0.100176    2.719767    1.299130
     59          1           0       -0.786874    3.155244    2.043300
     60          1           0        0.798631    3.358565    1.308540
     61          6           0       -1.542501   -0.084578    3.652240
     62          1           0       -0.724671    0.629900    3.525920
     63          1           0       -2.508201    0.419063    3.580950
     64          1           0       -1.451203   -0.628505    4.593500
     65          6           0        3.276242    2.728514    0.139400
     66          1           0        3.662568    2.099674   -0.670910
     67          1           0        2.300962    3.090246   -0.206940
     68          6           0        4.212525    3.912291    0.374430
     69          1           0        4.368358    4.489312   -0.541740
     70          1           0        3.809672    4.591960    1.132960
     71          1           0        5.191825    3.569284    0.725680
     72          6           0        5.028180   -2.054789   -0.540570
     73          1           0        5.627471   -1.997479    0.370200
     74          1           0        5.511766   -2.752256   -1.232260
     75          6           0        4.815408   -0.695235   -1.209010
     76          1           0        4.567328    0.049604   -0.447630
     77          1           0        5.679770   -0.343040   -1.775370
 ---------------------------------------------------------------------

 SCF Done:  E(RM062X) =  -1991.37284993     A.U. after   15 cycles

 The electronic state is 1-A.
 Alpha  occ. eigenvalues --  -90.10570 -19.63477 -19.59866 -19.58574 -19.58544
 Alpha  occ. eigenvalues --  -19.57120 -14.84839 -14.80415 -14.69565 -10.65910
 Alpha  occ. eigenvalues --  -10.63248 -10.62478 -10.61767 -10.59349 -10.59007
 Alpha  occ. eigenvalues --  -10.58831 -10.57844 -10.56903 -10.56827 -10.56722
 Alpha  occ. eigenvalues --  -10.55886 -10.55669 -10.55641 -10.54991 -10.54918
 Alpha  occ. eigenvalues --  -10.54820 -10.54667 -10.54341 -10.54254 -10.53781
 Alpha  occ. eigenvalues --  -10.53665 -10.53637 -10.53564 -10.53400 -10.52955
 Alpha  occ. eigenvalues --  -10.52708  -8.41520  -6.33756  -6.33668  -6.33591
 Alpha  occ. eigenvalues --   -1.19090  -1.18042  -1.12988  -1.09952  -1.09060
 Alpha  occ. eigenvalues --   -1.08685  -1.06369  -0.97941  -0.95249  -0.94866
 Alpha  occ. eigenvalues --   -0.92369  -0.89875  -0.88600  -0.88426  -0.84867
 Alpha  occ. eigenvalues --   -0.84775  -0.83823  -0.83584  -0.83350  -0.80160
 Alpha  occ. eigenvalues --   -0.79448  -0.76347  -0.75640  -0.74118  -0.71093
 Alpha  occ. eigenvalues --   -0.70492  -0.69382  -0.68643  -0.68340  -0.68028
 Alpha  occ. eigenvalues --   -0.65817  -0.64856  -0.63935  -0.63448  -0.61820
 Alpha  occ. eigenvalues --   -0.60344  -0.59498  -0.58933  -0.58352  -0.56259
 Alpha  occ. eigenvalues --   -0.55865  -0.55341  -0.55219  -0.54759  -0.53869
 Alpha  occ. eigenvalues --   -0.53543  -0.53083  -0.52510  -0.51943  -0.51489
 Alpha  occ. eigenvalues --   -0.51180  -0.50933  -0.50698  -0.50012  -0.49801
 Alpha  occ. eigenvalues --   -0.49762  -0.49530  -0.48770  -0.48323  -0.47961
 Alpha  occ. eigenvalues --   -0.47344  -0.47207  -0.47091  -0.46794  -0.45901
 Alpha  occ. eigenvalues --   -0.45563  -0.45246  -0.44104  -0.43813  -0.43513
 Alpha  occ. eigenvalues --   -0.43202  -0.42794  -0.42110  -0.41755  -0.41563
 Alpha  occ. eigenvalues --   -0.41296  -0.40849  -0.40478  -0.39925  -0.39712
 Alpha  occ. eigenvalues --   -0.39430  -0.39367  -0.39142  -0.38506  -0.38030
 Alpha  occ. eigenvalues --   -0.37517  -0.36369  -0.35714  -0.35536  -0.34972
 Alpha  occ. eigenvalues --   -0.34142  -0.32993  -0.32091  -0.31641  -0.30354
 Alpha  occ. eigenvalues --   -0.29912  -0.28375  -0.28099  -0.27223  -0.25634
 Alpha virt. eigenvalues --   -0.01132   0.00663   0.03226   0.03853   0.09213
 Alpha virt. eigenvalues --    0.10145   0.10969   0.11730   0.12947   0.13439
 Alpha virt. eigenvalues --    0.13777   0.14374   0.15091   0.15379   0.15844

 Mulliken charges:
               1
     1  C   -0.304000
     2  C   -0.305047
     3  C   -0.309497
     4  C   -0.067672
     5  C    0.075169
     6  C   -0.305284
     7  H    0.167445
     8  H    0.161991
     9  H    0.159833
    10  H    0.144974
    11  H    0.157922
    12  H    0.207865
    13  H    0.143694
    14  H    0.185741
    15  H    0.150604
    16  H    0.150365
    17  N   -0.425750
    18  C    0.096130
    19  C    0.098625
    20  C   -0.226053
    21  H    0.204788
    22  C   -0.228646
    23  H    0.255041
    24  C    0.426286
    25  H    0.188025
    26  H    0.208014
    27  N   -0.524264
    28  C   -0.159256
    29  H    0.177532
    30  H    0.198177
    31  C   -0.145274
    32  H    0.169260
    33  H    0.194425
    34  N   -0.797803
    35  S    1.245639
    36  O   -0.630474
    37  O   -0.659621
    38  C    0.053300
    39  C   -0.179900
    40  C   -0.189138
    41  C   -0.170857
    42  C   -0.160791
    43  C   -0.199421
    44  H    0.204885
    45  H    0.139079
    46  H    0.156481
    47  H    0.161564
    48  H    0.158611
    49  O   -0.721007
    50  H    0.491566
    51  C    0.680916
    52  O   -0.525276
    53  O   -0.647015
    54  H    0.477161
    55  C   -0.375867
    56  H    0.196713
    57  H    0.169154
    58  C   -0.057761
    59  H    0.118587
    60  H    0.131999
    61  C   -0.669433
    62  H    0.241701
    63  H    0.185024
    64  H    0.205798
    65  C   -0.293133
    66  H    0.147977
    67  H    0.164290
    68  C   -0.480392
    69  H    0.160275
    70  H    0.159110
    71  H    0.152243
    72  C   -0.334755
    73  H    0.183857
    74  H    0.168971
    75  C   -0.335162
    76  H    0.179315
    77  H    0.172431
 Sum of Mulliken charges =  -0.00000

 Dipole moment (field-independent basis, Debye):
    X=              1.7118    Y=              0.1085    Z=             -6.6531  Tot=              6.8706
 Quadrupole moment (field-independent basis, Debye-Ang):
   XX=           -201.2385   YY=           -223.1315   ZZ=           -222.4247
   XY=            -11.4792   XZ=              1.4868   YZ=             13.3023

 Normal termination of Gaussian 16 at Thu Feb  7 20:23:28 2019.
