 Gaussian 16, Revision A.03,
 Gaussian 16:  ES64L-G16RevA.03 25-Dec-2016

 ------------------------------------------
 #p M062X/6-31G* em=gd3 force int=ultrafine
 ------------------------------------------

 -----
 Title
 -----
 Symbolic Z-matrix:
 Charge =  0 Multiplicity = 1

                         Standard orientation:
 ---------------------------------------------------------------------
 Center     Atomic      Atomic             Coordinates (Angstroms)
 Number     Number       Type             X           Y           Z
 ---------------------------------------------------------------------
      1          6           0       -4.868044    0.215620   -0.456405
      2          6           0       -4.964402   -1.074888   -1.275613
      3          6           0       -3.598167   -1.452852   -1.861045
      4          6           0       -2.594589   -1.603811   -0.721889
      5          6           0       -2.450074   -0.280142    0.082652
      6          6           0       -3.823256    0.097715    0.657654
      7          1           0       -3.659221   -2.378102   -2.445453
      8          1           0       -5.322209   -1.891616   -0.635146
      9          1           0       -5.691377   -0.962758   -2.086885
     10          1           0       -4.580371    1.039963   -1.124295
     11          1           0       -5.848020    0.469356   -0.038388
     12          1           0       -2.929491   -2.392726   -0.041950
     13          1           0       -2.206550    0.487404   -0.667726
     14          1           0       -4.129652   -0.654512    1.395424
     15          1           0       -3.713313    1.055853    1.179509
     16          1           0       -3.285993   -0.646747   -2.539164
     17          7           0       -1.239450   -2.008167   -1.165778
     18          6           0       -0.610178   -1.340774   -2.160942
     19          6           0       -0.497988   -2.758398   -0.316596
     20          6           0        0.744286   -1.386104   -2.327133
     21          1           0       -1.240214   -0.742860   -2.806755
     22          6           0        0.861081   -2.849507   -0.416539
     23          1           0       -1.043932   -3.241240    0.486895
     24          6           0        1.551471   -2.081867   -1.384479
     25          1           0        1.187727   -0.831865   -3.143892
     26          1           0        1.384031   -3.419451    0.338493
     27          7           0        2.889561   -2.000989   -1.392167
     28          6           0        3.668388   -2.482770   -0.243732
     29          1           0        3.601141   -3.571185   -0.158841
     30          1           0        3.272252   -2.027033    0.674525
     31          6           0        3.601473   -0.936651   -2.117200
     32          1           0        3.865739   -1.278036   -3.125330
     33          1           0        2.968746   -0.047667   -2.183738
     34          7           0       -1.321683   -0.278899    0.986767
     35         16           0       -1.298346   -1.184694    2.281783
     36          8           0       -2.339683   -2.235495    2.298772
     37          8           0        0.087607   -1.680880    2.501606
     38          6           0       -0.936609    2.837313   -0.137603
     39          6           0       -0.294916    2.152522   -1.177082
     40          6           0       -0.895411    2.077618   -2.432089
     41          6           0       -2.151925    2.642767   -2.655615
     42          6           0       -2.807394    3.291403   -1.612155
     43          6           0       -2.196296    3.388005   -0.364260
     44          1           0        0.651413    1.649029   -0.985736
     45          1           0       -0.380638    1.570968   -3.245676
     46          1           0       -2.618163    2.578245   -3.634276
     47          1           0       -3.792305    3.722459   -1.764748
     48          1           0       -2.705450    3.889793    0.455227
     49          8           0        0.277871    1.770334    1.673456
     50          1           0       -0.293058    1.010886    1.337622
     51          6           0        2.441737    0.608874    1.174588
     52          8           0        2.092866    0.189865    0.085402
     53          8           0        2.269489   -0.059052    2.306388
     54          1           0        1.542459   -0.731288    2.204858
     55          6           0        3.180789    1.912751    1.367424
     56          1           0        2.654973    2.454452    2.160169
     57          1           0        4.184444    1.686917    1.753363
     58          6           0       -0.294599    2.963232    1.227327
     59          1           0       -1.045386    3.345087    1.938168
     60          1           0        0.510764    3.712584    1.187899
     61          6           0       -1.591595   -0.094345    3.672498
     62          1           0       -0.836843    0.693802    3.614420
     63          1           0       -2.594510    0.326145    3.576244
     64          1           0       -1.494428   -0.662849    4.598259
     65          6           0        3.259879    2.741474    0.090047
     66          1           0        3.672993    2.128757   -0.720130
     67          1           0        2.244791    3.006874   -0.226835
     68          6           0        4.097742    4.004092    0.269238
     69          1           0        4.167458    4.571436   -0.663414
     70          1           0        3.663254    4.661205    1.029922
     71          1           0        5.116009    3.756470    0.588361
     72          6           0        5.084007   -1.996740   -0.541396
     73          1           0        5.676278   -1.889520    0.369612
     74          1           0        5.594301   -2.702542   -1.204531
     75          6           0        4.840096   -0.666377   -1.257568
     76          1           0        4.595948    0.106688   -0.523905
     77          1           0        5.692681   -0.328044   -1.849958
 ---------------------------------------------------------------------

 SCF Done:  E(RM062X) =  -1991.38563324     A.U. after   15 cycles

 The electronic state is 1-A.
 Alpha  occ. eigenvalues --  -90.10278 -19.63512 -19.60160 -19.58942 -19.58425
 Alpha  occ. eigenvalues --  -19.58306 -14.84784 -14.80445 -14.69307 -10.65657
 Alpha  occ. eigenvalues --  -10.63207 -10.62417 -10.61538 -10.59166 -10.59097
 Alpha  occ. eigenvalues --  -10.58949 -10.57823 -10.57387 -10.56769 -10.56694
 Alpha  occ. eigenvalues --  -10.55966 -10.55711 -10.55591 -10.55033 -10.54967
 Alpha  occ. eigenvalues --  -10.54905 -10.54631 -10.54592 -10.54510 -10.53902
 Alpha  occ. eigenvalues --  -10.53586 -10.53472 -10.53374 -10.53337 -10.52799
 Alpha  occ. eigenvalues --  -10.52625  -8.41236  -6.33473  -6.33382  -6.33302
 Alpha  occ. eigenvalues --   -1.19234  -1.17768  -1.12922  -1.10157  -1.09953
 Alpha  occ. eigenvalues --   -1.09092  -1.06047  -0.97524  -0.95324  -0.94747
 Alpha  occ. eigenvalues --   -0.92186  -0.89824  -0.88559  -0.88261  -0.85069
 Alpha  occ. eigenvalues --   -0.84874  -0.83683  -0.83523  -0.83292  -0.80082
 Alpha  occ. eigenvalues --   -0.79320  -0.76320  -0.75621  -0.74672  -0.70938
 Alpha  occ. eigenvalues --   -0.70236  -0.69256  -0.68676  -0.68340  -0.68071
 Alpha  occ. eigenvalues --   -0.65936  -0.64748  -0.63918  -0.63470  -0.61600
 Alpha  occ. eigenvalues --   -0.60260  -0.59367  -0.59067  -0.58351  -0.56155
 Alpha  occ. eigenvalues --   -0.55562  -0.55246  -0.55135  -0.54291  -0.53816
 Alpha  occ. eigenvalues --   -0.53449  -0.53053  -0.52567  -0.51899  -0.51664
 Alpha  occ. eigenvalues --   -0.51084  -0.50957  -0.50615  -0.50049  -0.49830
 Alpha  occ. eigenvalues --   -0.49645  -0.49530  -0.48784  -0.48318  -0.48003
 Alpha  occ. eigenvalues --   -0.47795  -0.47206  -0.47057  -0.46976  -0.45858
 Alpha  occ. eigenvalues --   -0.45621  -0.45208  -0.43947  -0.43674  -0.43454
 Alpha  occ. eigenvalues --   -0.42841  -0.42770  -0.42172  -0.42042  -0.41853
 Alpha  occ. eigenvalues --   -0.41186  -0.40912  -0.40525  -0.39884  -0.39603
 Alpha  occ. eigenvalues --   -0.39368  -0.39296  -0.38979  -0.38402  -0.38025
 Alpha  occ. eigenvalues --   -0.37345  -0.36241  -0.35817  -0.35336  -0.35168
 Alpha  occ. eigenvalues --   -0.34298  -0.33023  -0.32004  -0.31653  -0.31411
 Alpha  occ. eigenvalues --   -0.29923  -0.28840  -0.28325  -0.27354  -0.25351
 Alpha virt. eigenvalues --   -0.01046   0.00676   0.03164   0.03730   0.08896
 Alpha virt. eigenvalues --    0.10171   0.10936   0.11805   0.12955   0.13545
 Alpha virt. eigenvalues --    0.13832   0.14307   0.14986   0.15478   0.15848

 Mulliken charges:
               1
     1  C   -0.303951
     2  C   -0.304214
     3  C   -0.309745
     4  C   -0.072492
     5  C    0.066158
     6  C   -0.304829
     7  H    0.166747
     8  H    0.161171
     9  H    0.159201
    10  H    0.145357
    11  H    0.156918
    12  H    0.210751
    13  H    0.140752
    14  H    0.180008
    15  H    0.150267
    16  H    0.149918
    17  N   -0.423950
    18  C    0.097981
    19  C    0.086870
    20  C   -0.226646
    21  H    0.204624
    22  C   -0.226666
    23  H    0.261877
    24  C    0.427145
    25  H    0.187663
    26  H    0.207662
    27  N   -0.527318
    28  C   -0.158709
    29  H    0.178255
    30  H    0.198375
    31  C   -0.146081
    32  H    0.169584
    33  H    0.194346
    34  N   -0.763162
    35  S    1.248275
    36  O   -0.642214
    37  O   -0.669383
    38  C    0.050039
    39  C   -0.176099
    40  C   -0.188335
    41  C   -0.169520
    42  C   -0.161059
    43  C   -0.199390
    44  H    0.204613
    45  H    0.139414
    46  H    0.156862
    47  H    0.162198
    48  H    0.158146
    49  O   -0.716626
    50  H    0.485011
    51  C    0.658364
    52  O   -0.521051
    53  O   -0.646740
    54  H    0.484390
    55  C   -0.372279
    56  H    0.202780
    57  H    0.165853
    58  C   -0.063423
    59  H    0.127095
    60  H    0.148044
    61  C   -0.661546
    62  H    0.226630
    63  H    0.186263
    64  H    0.206399
    65  C   -0.289521
    66  H    0.145841
    67  H    0.162269
    68  C   -0.480398
    69  H    0.159348
    70  H    0.158509
    71  H    0.151680
    72  C   -0.336638
    73  H    0.184438
    74  H    0.169792
    75  C   -0.335768
    76  H    0.180975
    77  H    0.172896
 Sum of Mulliken charges =  -0.00000

 Dipole moment (field-independent basis, Debye):
    X=              1.5718    Y=             -0.1283    Z=             -6.6777  Tot=              6.8614
 Quadrupole moment (field-independent basis, Debye-Ang):
   XX=           -199.4452   YY=           -222.4626   ZZ=           -222.6439
   XY=            -11.6207   XZ=              0.1075   YZ=             12.7747

 Normal termination of Gaussian 16 at Thu Feb  7 22:37:55 2019.
