 Gaussian 16, Revision A.03,
 Gaussian 16:  ES64L-G16RevA.03 25-Dec-2016

 ------------------------------------------
 #p M062X/6-31G* em=gd3 force int=ultrafine
 ------------------------------------------

 -----
 Title
 -----
 Symbolic Z-matrix:
 Charge =  0 Multiplicity = 1

                         Standard orientation:
 ---------------------------------------------------------------------
 Center     Atomic      Atomic             Coordinates (Angstroms)
 Number     Number       Type             X           Y           Z
 ---------------------------------------------------------------------
      1          6           0       -4.783956    0.438156   -0.522757
      2          6           0       -4.983624   -0.852823   -1.322424
      3          6           0       -3.662927   -1.317380   -1.948812
      4          6           0       -2.643069   -1.527893   -0.835786
      5          6           0       -2.398637   -0.212386   -0.051952
      6          6           0       -3.715424    0.274346    0.562903
      7          1           0       -3.795637   -2.241736   -2.521091
      8          1           0       -5.365896   -1.641401   -0.660996
      9          1           0       -5.731049   -0.704374   -2.108087
     10          1           0       -4.477356    1.239346   -1.207894
     11          1           0       -5.730463    0.748270   -0.068131
     12          1           0       -3.019524   -2.283215   -0.139202
     13          1           0       -2.081949    0.540681   -0.784901
     14          1           0       -4.055922   -0.441824    1.318290
     15          1           0       -3.525914    1.231822    1.059781
     16          1           0       -3.317002   -0.538756   -2.642079
     17          7           0       -1.325065   -2.017860   -1.290684
     18          6           0       -0.641736   -1.336485   -2.248816
     19          6           0       -0.626646   -2.811020   -0.434824
     20          6           0        0.713995   -1.388020   -2.349410
     21          1           0       -1.236755   -0.716641   -2.908239
     22          6           0        0.730620   -2.898375   -0.460309
     23          1           0       -1.214842   -3.315668    0.324061
     24          6           0        1.470206   -2.082984   -1.358226
     25          1           0        1.202393   -0.818815   -3.128695
     26          1           0        1.218149   -3.489895    0.301508
     27          7           0        2.791560   -1.975820   -1.278310
     28          6           0        3.523822   -2.426830   -0.084922
     29          1           0        3.409039   -3.505268    0.054332
     30          1           0        3.126759   -1.882203    0.784389
     31          6           0        3.517098   -0.904529   -1.975115
     32          1           0        3.762063   -1.220562   -2.996567
     33          1           0        2.886065   -0.012028   -1.998577
     34          7           0       -1.275727   -0.311137    0.867274
     35         16           0       -1.323518   -1.158170    2.259496
     36          8           0       -2.527191   -1.995611    2.247953
     37          8           0       -0.032461   -1.825000    2.447670
     38          6           0       -0.595897    2.685614    0.025852
     39          6           0       -0.123578    2.194237   -1.201463
     40          6           0       -0.905950    2.283910   -2.351264
     41          6           0       -2.177280    2.856773   -2.309208
     42          6           0       -2.659717    3.343106   -1.097357
     43          6           0       -1.871139    3.257897    0.050400
     44          1           0        0.835534    1.689031   -1.223471
     45          1           0       -0.512509    1.908753   -3.293852
     46          1           0       -2.780773    2.929553   -3.209804
     47          1           0       -3.646805    3.794219   -1.043400
     48          1           0       -2.256055    3.651540    0.989230
     49          8           0        0.708784    1.546285    1.882842
     50          1           0       -0.296110   -0.063937    0.553214
     51          6           0        1.856465    0.821875    1.247576
     52          8           0        1.460497    0.213595    0.149270
     53          8           0        2.239042   -0.059889    2.287057
     54          1           0        1.545950   -0.744854    2.305999
     55          6           0        3.051926    1.803009    1.133477
     56          1           0        2.997313    2.519363    1.964321
     57          1           0        3.951041    1.203569    1.324424
     58          6           0        0.241082    2.734666    1.308119
     59          1           0       -0.393281    3.196223    2.076210
     60          1           0        1.073190    3.435681    1.144442
     61          6           0       -1.470002    0.054971    3.550502
     62          1           0       -0.600212    0.710158    3.450072
     63          1           0       -2.402793    0.601112    3.399370
     64          1           0       -1.478112   -0.474719    4.504538
     65          6           0        3.228986    2.538958   -0.191528
     66          1           0        3.282443    1.806713   -1.005484
     67          1           0        2.360511    3.166689   -0.420225
     68          6           0        4.485694    3.408008   -0.187081
     69          1           0        4.626453    3.925560   -1.141053
     70          1           0        4.429351    4.167181    0.601159
     71          1           0        5.379636    2.803668    0.005950
     72          6           0        4.959365   -2.017681   -0.394180
     73          1           0        5.561644   -1.928913    0.511699
     74          1           0        5.428777   -2.754148   -1.055713
     75          6           0        4.766245   -0.682577   -1.117050
     76          1           0        4.549016    0.095546   -0.380838
     77          1           0        5.629640   -0.375579   -1.711001
 ---------------------------------------------------------------------

 SCF Done:  E(RM062X) =  -1991.35845308     A.U. after   14 cycles

 The electronic state is 1-A.
 Alpha  occ. eigenvalues --  -90.14196 -19.61799 -19.61776 -19.58657 -19.56704
 Alpha  occ. eigenvalues --  -19.51248 -14.85178 -14.80446 -14.75800 -10.63422
 Alpha  occ. eigenvalues --  -10.62790 -10.62243 -10.62204 -10.60741 -10.59370
 Alpha  occ. eigenvalues --  -10.58438 -10.58002 -10.57956 -10.57167 -10.56882
 Alpha  occ. eigenvalues --  -10.56699 -10.55667 -10.55608 -10.55110 -10.54842
 Alpha  occ. eigenvalues --  -10.54822 -10.54799 -10.54727 -10.54576 -10.54399
 Alpha  occ. eigenvalues --  -10.54333 -10.54322 -10.53068 -10.51503 -10.51457
 Alpha  occ. eigenvalues --  -10.49696  -8.45173  -6.37390  -6.37367  -6.37209
 Alpha  occ. eigenvalues --   -1.22019  -1.13588  -1.13468  -1.10273  -1.09345
 Alpha  occ. eigenvalues --   -1.05859  -1.01766  -0.99325  -0.95755  -0.94991
 Alpha  occ. eigenvalues --   -0.93501  -0.90307  -0.88757  -0.85919  -0.85766
 Alpha  occ. eigenvalues --   -0.84820  -0.84714  -0.84229  -0.83057  -0.82707
 Alpha  occ. eigenvalues --   -0.76672  -0.76262  -0.75833  -0.74346  -0.72806
 Alpha  occ. eigenvalues --   -0.71656  -0.68329  -0.68226  -0.67938  -0.67216
 Alpha  occ. eigenvalues --   -0.66739  -0.65234  -0.64863  -0.63529  -0.60550
 Alpha  occ. eigenvalues --   -0.60404  -0.59776  -0.59049  -0.57806  -0.57601
 Alpha  occ. eigenvalues --   -0.57185  -0.56442  -0.55790  -0.55167  -0.54199
 Alpha  occ. eigenvalues --   -0.53555  -0.52658  -0.52464  -0.52444  -0.51900
 Alpha  occ. eigenvalues --   -0.51552  -0.51020  -0.50738  -0.49882  -0.49549
 Alpha  occ. eigenvalues --   -0.49158  -0.48841  -0.48207  -0.48139  -0.48004
 Alpha  occ. eigenvalues --   -0.47677  -0.47468  -0.46916  -0.46431  -0.46105
 Alpha  occ. eigenvalues --   -0.44881  -0.44738  -0.44149  -0.43867  -0.43264
 Alpha  occ. eigenvalues --   -0.42520  -0.42141  -0.41399  -0.41308  -0.41108
 Alpha  occ. eigenvalues --   -0.40903  -0.40486  -0.39994  -0.39808  -0.39304
 Alpha  occ. eigenvalues --   -0.39254  -0.39074  -0.38438  -0.37970  -0.37602
 Alpha  occ. eigenvalues --   -0.37390  -0.36743  -0.36561  -0.35751  -0.34907
 Alpha  occ. eigenvalues --   -0.34390  -0.33975  -0.31672  -0.31112  -0.29771
 Alpha  occ. eigenvalues --   -0.28873  -0.28602  -0.27653  -0.24831  -0.24406
 Alpha virt. eigenvalues --   -0.01527   0.00399   0.03550   0.03754   0.10136
 Alpha virt. eigenvalues --    0.10984   0.11650   0.12208   0.13170   0.13503
 Alpha virt. eigenvalues --    0.14216   0.14586   0.14760   0.15225   0.15601

 Mulliken charges:
               1
     1  C   -0.306279
     2  C   -0.307141
     3  C   -0.309247
     4  C   -0.060252
     5  C    0.056645
     6  C   -0.311464
     7  H    0.174015
     8  H    0.162843
     9  H    0.165532
    10  H    0.151047
    11  H    0.163379
    12  H    0.209061
    13  H    0.173126
    14  H    0.193096
    15  H    0.163632
    16  H    0.154282
    17  N   -0.430606
    18  C    0.067437
    19  C    0.063795
    20  C   -0.201798
    21  H    0.206453
    22  C   -0.209210
    23  H    0.245244
    24  C    0.445936
    25  H    0.192061
    26  H    0.211538
    27  N   -0.526037
    28  C   -0.170950
    29  H    0.169763
    30  H    0.229593
    31  C   -0.154786
    32  H    0.165659
    33  H    0.205773
    34  N   -0.815524
    35  S    1.253220
    36  O   -0.611939
    37  O   -0.606338
    38  C    0.084580
    39  C   -0.184320
    40  C   -0.189767
    41  C   -0.171221
    42  C   -0.163706
    43  C   -0.212114
    44  H    0.211458
    45  H    0.140556
    46  H    0.154903
    47  H    0.158591
    48  H    0.152483
    49  O   -0.551270
    50  H    0.448665
    51  C    0.724632
    52  O   -0.721718
    53  O   -0.717918
    54  H    0.444668
    55  C   -0.338469
    56  H    0.148725
    57  H    0.151080
    58  C   -0.091121
    59  H    0.139826
    60  H    0.147651
    61  C   -0.663309
    62  H    0.273699
    63  H    0.196298
    64  H    0.217568
    65  C   -0.292607
    66  H    0.135769
    67  H    0.146270
    68  C   -0.473345
    69  H    0.148931
    70  H    0.154457
    71  H    0.145018
    72  C   -0.331897
    73  H    0.187139
    74  H    0.162953
    75  C   -0.343175
    76  H    0.197406
    77  H    0.171074
 Sum of Mulliken charges =  -0.00000

 Dipole moment (field-independent basis, Debye):
    X=             -2.5693    Y=             -1.9321    Z=             -6.3511  Tot=              7.1183
 Quadrupole moment (field-independent basis, Debye-Ang):
   XX=           -205.7509   YY=           -222.7728   ZZ=           -219.9273
   XY=            -12.3893   XZ=             -5.2997   YZ=             10.0336

 Normal termination of Gaussian 16 at Thu Feb  7 14:44:46 2019.
