 Gaussian 16, Revision A.03,
 Gaussian 16:  ES64L-G16RevA.03 25-Dec-2016

 ------------------------------------------
 #p M062X/6-31G* em=gd3 force int=ultrafine
 ------------------------------------------

 -----
 Title
 -----
 Symbolic Z-matrix:
 Charge =  0 Multiplicity = 1

                         Standard orientation:
 ---------------------------------------------------------------------
 Center     Atomic      Atomic             Coordinates (Angstroms)
 Number     Number       Type             X           Y           Z
 ---------------------------------------------------------------------
      1          6           0       -4.870195    0.120244   -0.436533
      2          6           0       -4.931004   -1.170711   -1.258585
      3          6           0       -3.555575   -1.509422   -1.846045
      4          6           0       -2.549295   -1.634263   -0.706464
      5          6           0       -2.434841   -0.305264    0.094185
      6          6           0       -3.817318    0.032685    0.672605
      7          1           0       -3.591241   -2.436731   -2.429386
      8          1           0       -5.264284   -1.998829   -0.619397
      9          1           0       -5.662252   -1.077561   -2.068348
     10          1           0       -4.611891    0.954962   -1.103415
     11          1           0       -5.855513    0.341623   -0.012649
     12          1           0       -2.869480   -2.426499   -0.024176
     13          1           0       -2.213590    0.467601   -0.657168
     14          1           0       -4.098239   -0.730360    1.409675
     15          1           0       -3.734855    0.992490    1.196582
     16          1           0       -3.265400   -0.695400   -2.524536
     17          7           0       -1.188270   -2.017113   -1.149099
     18          6           0       -0.570942   -1.345007   -2.147943
     19          6           0       -0.438086   -2.765846   -0.306542
     20          6           0        0.782759   -1.380793   -2.322151
     21          1           0       -1.210185   -0.752980   -2.790156
     22          6           0        0.920878   -2.846169   -0.413771
     23          1           0       -0.977019   -3.254562    0.498042
     24          6           0        1.599392   -2.070219   -1.383328
     25          1           0        1.218004   -0.826069   -3.142899
     26          1           0        1.453067   -3.416240    0.334721
     27          7           0        2.936170   -1.977509   -1.397147
     28          6           0        3.727066   -2.460962   -0.258291
     29          1           0        3.670872   -3.550831   -0.182247
     30          1           0        3.331858   -2.016965    0.666149
     31          6           0        3.634786   -0.907353   -2.125173
     32          1           0        3.896016   -1.245806   -3.135279
     33          1           0        2.993784   -0.023958   -2.186916
     34          7           0       -1.307551   -0.271119    1.002238
     35         16           0       -1.271985   -1.197509    2.281024
     36          8           0       -2.277663   -2.283238    2.270086
     37          8           0        0.123891   -1.658434    2.515536
     38          6           0       -1.057001    2.860367   -0.164635
     39          6           0       -0.365218    2.175178   -1.169959
     40          6           0       -0.923508    2.058692   -2.440911
     41          6           0       -2.187399    2.583191   -2.714203
     42          6           0       -2.890844    3.237375   -1.705464
     43          6           0       -2.322140    3.376538   -0.441359
     44          1           0        0.586053    1.699637   -0.936645
     45          1           0       -0.369431    1.548996   -3.226035
     46          1           0       -2.622217    2.483418   -3.704351
     47          1           0       -3.881490    3.638343   -1.898892
     48          1           0       -2.870990    3.883663    0.349103
     49          8           0        0.244613    1.885213    1.637663
     50          1           0       -0.287473    1.084247    1.348894
     51          6           0        2.439156    0.641651    1.203207
     52          8           0        2.107790    0.206084    0.113984
     53          8           0        2.229973    0.004313    2.344129
     54          1           0        1.520998   -0.687996    2.236356
     55          6           0        3.192843    1.937698    1.389334
     56          1           0        2.699571    2.474426    2.205375
     57          1           0        4.208307    1.697927    1.735654
     58          6           0       -0.451287    3.021496    1.213698
     59          1           0       -1.247562    3.304147    1.922159
     60          1           0        0.269454    3.852403    1.201998
     61          6           0       -1.626828   -0.148540    3.687975
     62          1           0       -0.910968    0.676482    3.657041
     63          1           0       -2.648339    0.223460    3.587782
     64          1           0       -1.513514   -0.731652    4.602806
     65          6           0        3.231122    2.779419    0.120073
     66          1           0        3.656938    2.188587   -0.700011
     67          1           0        2.201886    3.009471   -0.177800
     68          6           0        4.023410    4.070285    0.302797
     69          1           0        4.052985    4.653050   -0.622432
     70          1           0        3.575814    4.698001    1.080476
     71          1           0        5.056522    3.860396    0.600726
     72          6           0        5.136087   -1.959309   -0.562068
     73          1           0        5.732724   -1.850211    0.345817
     74          1           0        5.649671   -2.657543   -1.230803
     75          6           0        4.874956   -0.628303   -1.271266
     76          1           0        4.624972    0.139323   -0.533538
     77          1           0        5.721069   -0.279575   -1.866901
 ---------------------------------------------------------------------

 SCF Done:  E(RM062X) =  -1991.38820287     A.U. after   15 cycles

 The electronic state is 1-A.
 Alpha  occ. eigenvalues --  -90.10334 -19.63391 -19.60095 -19.59163 -19.58535
 Alpha  occ. eigenvalues --  -19.58336 -14.84793 -14.80486 -14.69361 -10.65507
 Alpha  occ. eigenvalues --  -10.63220 -10.62406 -10.61503 -10.59126 -10.59077
 Alpha  occ. eigenvalues --  -10.59030 -10.57822 -10.57413 -10.56800 -10.56664
 Alpha  occ. eigenvalues --  -10.56015 -10.55737 -10.55540 -10.54985 -10.54925
 Alpha  occ. eigenvalues --  -10.54876 -10.54601 -10.54562 -10.54502 -10.53809
 Alpha  occ. eigenvalues --  -10.53640 -10.53567 -10.53219 -10.53160 -10.52662
 Alpha  occ. eigenvalues --  -10.52620  -8.41297  -6.33535  -6.33442  -6.33362
 Alpha  occ. eigenvalues --   -1.19131  -1.17853  -1.12930  -1.10212  -1.09863
 Alpha  occ. eigenvalues --   -1.09124  -1.06122  -0.97527  -0.95277  -0.94781
 Alpha  occ. eigenvalues --   -0.92183  -0.89843  -0.88572  -0.88127  -0.85029
 Alpha  occ. eigenvalues --   -0.84928  -0.83657  -0.83508  -0.83301  -0.80158
 Alpha  occ. eigenvalues --   -0.79198  -0.76339  -0.75645  -0.74677  -0.70935
 Alpha  occ. eigenvalues --   -0.70201  -0.69137  -0.68702  -0.68351  -0.68027
 Alpha  occ. eigenvalues --   -0.65846  -0.64730  -0.63931  -0.63429  -0.61609
 Alpha  occ. eigenvalues --   -0.60259  -0.59382  -0.59005  -0.58349  -0.56161
 Alpha  occ. eigenvalues --   -0.55456  -0.55179  -0.55076  -0.54136  -0.53714
 Alpha  occ. eigenvalues --   -0.53441  -0.53066  -0.52458  -0.51947  -0.51704
 Alpha  occ. eigenvalues --   -0.51118  -0.50979  -0.50610  -0.50113  -0.49831
 Alpha  occ. eigenvalues --   -0.49585  -0.49521  -0.48814  -0.48338  -0.47989
 Alpha  occ. eigenvalues --   -0.47793  -0.47177  -0.46999  -0.46974  -0.45912
 Alpha  occ. eigenvalues --   -0.45757  -0.45233  -0.43944  -0.43651  -0.43428
 Alpha  occ. eigenvalues --   -0.42783  -0.42552  -0.42215  -0.41975  -0.41884
 Alpha  occ. eigenvalues --   -0.41161  -0.40873  -0.40548  -0.39903  -0.39548
 Alpha  occ. eigenvalues --   -0.39360  -0.39234  -0.38837  -0.38389  -0.37920
 Alpha  occ. eigenvalues --   -0.37311  -0.36215  -0.35838  -0.35347  -0.35125
 Alpha  occ. eigenvalues --   -0.34362  -0.33086  -0.32052  -0.31681  -0.31494
 Alpha  occ. eigenvalues --   -0.29874  -0.28875  -0.28317  -0.27426  -0.25380
 Alpha virt. eigenvalues --   -0.01027   0.00659   0.03248   0.03774   0.09038
 Alpha virt. eigenvalues --    0.10163   0.10906   0.11813   0.12970   0.13529
 Alpha virt. eigenvalues --    0.13870   0.14274   0.15036   0.15482   0.15794

 Mulliken charges:
               1
     1  C   -0.303919
     2  C   -0.304172
     3  C   -0.309621
     4  C   -0.073231
     5  C    0.063376
     6  C   -0.305050
     7  H    0.166225
     8  H    0.160971
     9  H    0.159128
    10  H    0.145977
    11  H    0.156735
    12  H    0.212371
    13  H    0.141373
    14  H    0.179310
    15  H    0.149848
    16  H    0.150309
    17  N   -0.424151
    18  C    0.099451
    19  C    0.084064
    20  C   -0.227536
    21  H    0.204824
    22  C   -0.226590
    23  H    0.263898
    24  C    0.427957
    25  H    0.188036
    26  H    0.207239
    27  N   -0.528415
    28  C   -0.157995
    29  H    0.178345
    30  H    0.199097
    31  C   -0.146739
    32  H    0.169577
    33  H    0.195301
    34  N   -0.757051
    35  S    1.249553
    36  O   -0.645849
    37  O   -0.670128
    38  C    0.048765
    39  C   -0.176711
    40  C   -0.187433
    41  C   -0.169733
    42  C   -0.161764
    43  C   -0.198423
    44  H    0.204378
    45  H    0.139134
    46  H    0.156468
    47  H    0.161930
    48  H    0.157302
    49  O   -0.714097
    50  H    0.482529
    51  C    0.651228
    52  O   -0.522522
    53  O   -0.646198
    54  H    0.485567
    55  C   -0.369136
    56  H    0.201546
    57  H    0.164541
    58  C   -0.065365
    59  H    0.127854
    60  H    0.154450
    61  C   -0.658085
    62  H    0.221393
    63  H    0.187580
    64  H    0.207434
    65  C   -0.287750
    66  H    0.144317
    67  H    0.164119
    68  C   -0.480327
    69  H    0.158762
    70  H    0.158429
    71  H    0.150818
    72  C   -0.337165
    73  H    0.184309
    74  H    0.169972
    75  C   -0.335853
    76  H    0.182086
    77  H    0.173134
 Sum of Mulliken charges =  -0.00000

 Dipole moment (field-independent basis, Debye):
    X=              1.5388    Y=             -0.3350    Z=             -6.5725  Tot=              6.7585
 Quadrupole moment (field-independent basis, Debye-Ang):
   XX=           -198.5740   YY=           -222.7705   ZZ=           -222.1965
   XY=            -11.8363   XZ=             -0.7657   YZ=             12.4982

 Normal termination of Gaussian 16 at Thu Feb  7 23:47:47 2019.
