 Gaussian 16, Revision A.03,
 Gaussian 16:  ES64L-G16RevA.03 25-Dec-2016

 ------------------------------------------
 #p M062X/6-31G* em=gd3 force int=ultrafine
 ------------------------------------------

 -----
 Title
 -----
 Symbolic Z-matrix:
 Charge =  0 Multiplicity = 1

                         Standard orientation:
 ---------------------------------------------------------------------
 Center     Atomic      Atomic             Coordinates (Angstroms)
 Number     Number       Type             X           Y           Z
 ---------------------------------------------------------------------
      1          6           0       -4.861878    0.520229   -0.548334
      2          6           0       -5.033159   -0.768634   -1.357484
      3          6           0       -3.691593   -1.229138   -1.940177
      4          6           0       -2.701562   -1.448817   -0.800607
      5          6           0       -2.501036   -0.144482    0.008477
      6          6           0       -3.837475    0.343676    0.575696
      7          1           0       -3.803717   -2.148335   -2.524897
      8          1           0       -5.438046   -1.558353   -0.711087
      9          1           0       -5.752506   -0.619146   -2.168653
     10          1           0       -4.521989    1.322295   -1.217752
     11          1           0       -5.823993    0.834725   -0.131460
     12          1           0       -3.090264   -2.220024   -0.127581
     13          1           0       -2.146795    0.615564   -0.699950
     14          1           0       -4.205272   -0.374603    1.316347
     15          1           0       -3.658755    1.296941    1.086015
     16          1           0       -3.324619   -0.443875   -2.614677
     17          7           0       -1.370985   -1.924458   -1.234776
     18          6           0       -0.684581   -1.267241   -2.207528
     19          6           0       -0.678327   -2.730408   -0.387232
     20          6           0        0.666089   -1.365170   -2.339613
     21          1           0       -1.271772   -0.632868   -2.859021
     22          6           0        0.674024   -2.866439   -0.446202
     23          1           0       -1.265180   -3.219905    0.382230
     24          6           0        1.424971   -2.096377   -1.376834
     25          1           0        1.154611   -0.814145   -3.132177
     26          1           0        1.156552   -3.477452    0.303396
     27          7           0        2.752389   -2.070946   -1.350588
     28          6           0        3.488104   -2.579745   -0.181873
     29          1           0        3.343950   -3.658560   -0.073813
     30          1           0        3.118523   -2.049333    0.707129
     31          6           0        3.525309   -1.031662   -2.052634
     32          1           0        3.784917   -1.377710   -3.060931
     33          1           0        2.933347   -0.115041   -2.097434
     34          7           0       -1.418537   -0.261320    0.969088
     35         16           0       -1.436000   -1.137321    2.344500
     36          8           0       -2.669138   -1.927206    2.336282
     37          8           0       -0.162777   -1.845436    2.478984
     38          6           0       -0.530006    2.676531   -0.067996
     39          6           0       -0.040563    2.072971   -1.234502
     40          6           0       -0.767541    2.152845   -2.421954
     41          6           0       -1.997028    2.810276   -2.465488
     42          6           0       -2.496273    3.399010   -1.305169
     43          6           0       -1.763009    3.332760   -0.120784
     44          1           0        0.886046    1.502383   -1.168195
     45          1           0       -0.365648    1.699885   -3.326253
     46          1           0       -2.557884    2.869620   -3.394132
     47          1           0       -3.453848    3.912091   -1.322327
     48          1           0       -2.158063    3.796941    0.780734
     49          8           0        0.682635    1.372065    1.658138
     50          1           0       -0.529895    0.253248    0.843019
     51          6           0        2.045381    0.741750    1.175450
     52          8           0        1.891003    0.183789    0.024808
     53          8           0        2.269762   -0.145082    2.251681
     54          1           0        1.572720   -0.821795    2.175104
     55          6           0        3.130463    1.830400    1.295451
     56          1           0        2.902823    2.500588    2.134053
     57          1           0        4.053853    1.305681    1.573363
     58          6           0        0.250038    2.636512    1.242267
     59          1           0       -0.412797    3.026171    2.030162
     60          1           0        1.090650    3.342586    1.180740
     61          6           0       -1.473337    0.068858    3.650984
     62          1           0       -0.586863    0.693101    3.500788
     63          1           0       -2.395070    0.645904    3.563048
     64          1           0       -1.430714   -0.463703    4.602366
     65          6           0        3.379692    2.617826    0.011200
     66          1           0        3.678048    1.917905   -0.777590
     67          1           0        2.454592    3.081255   -0.351751
     68          6           0        4.447763    3.692759    0.198394
     69          1           0        4.646750    4.234868   -0.731301
     70          1           0        4.137188    4.424409    0.952766
     71          1           0        5.390583    3.251527    0.540584
     72          6           0        4.931118   -2.194908   -0.485692
     73          1           0        5.536812   -2.145828    0.421090
     74          1           0        5.384280   -2.920822   -1.170231
     75          6           0        4.756765   -0.836588   -1.165961
     76          1           0        4.505202   -0.088329   -0.409068
     77          1           0        5.632221   -0.509452   -1.731016
 ---------------------------------------------------------------------

 SCF Done:  E(RM062X) =  -1991.35566836     A.U. after   15 cycles

 The electronic state is 1-A.
 Alpha  occ. eigenvalues --  -90.14756 -19.62379 -19.62099 -19.58605 -19.57014
 Alpha  occ. eigenvalues --  -19.50624 -14.85185 -14.80033 -14.76549 -10.63153
 Alpha  occ. eigenvalues --  -10.62610 -10.62207 -10.62126 -10.61084 -10.59880
 Alpha  occ. eigenvalues --  -10.57762 -10.57755 -10.57616 -10.57037 -10.56970
 Alpha  occ. eigenvalues --  -10.56891 -10.56351 -10.55875 -10.55120 -10.55087
 Alpha  occ. eigenvalues --  -10.55039 -10.54881 -10.54684 -10.54682 -10.54647
 Alpha  occ. eigenvalues --  -10.54465 -10.54050 -10.53123 -10.51100 -10.50990
 Alpha  occ. eigenvalues --  -10.49560  -8.45727  -6.37954  -6.37904  -6.37774
 Alpha  occ. eigenvalues --   -1.22543  -1.13459  -1.12842  -1.10748  -1.08871
 Alpha  occ. eigenvalues --   -1.05944  -1.02452  -0.99968  -0.95834  -0.95221
 Alpha  occ. eigenvalues --   -0.93471  -0.90120  -0.88568  -0.86538  -0.85360
 Alpha  occ. eigenvalues --   -0.84934  -0.84853  -0.83703  -0.83310  -0.83064
 Alpha  occ. eigenvalues --   -0.76567  -0.75978  -0.75552  -0.74246  -0.73267
 Alpha  occ. eigenvalues --   -0.71760  -0.68230  -0.68144  -0.67749  -0.67488
 Alpha  occ. eigenvalues --   -0.66434  -0.65489  -0.64875  -0.63338  -0.60509
 Alpha  occ. eigenvalues --   -0.60381  -0.59952  -0.59420  -0.57937  -0.57690
 Alpha  occ. eigenvalues --   -0.57153  -0.56395  -0.55674  -0.55097  -0.54383
 Alpha  occ. eigenvalues --   -0.53560  -0.53079  -0.52677  -0.52473  -0.52170
 Alpha  occ. eigenvalues --   -0.51686  -0.50805  -0.50138  -0.49919  -0.49354
 Alpha  occ. eigenvalues --   -0.49239  -0.48944  -0.48485  -0.48180  -0.48011
 Alpha  occ. eigenvalues --   -0.47724  -0.47633  -0.47163  -0.46168  -0.45809
 Alpha  occ. eigenvalues --   -0.45275  -0.45165  -0.44388  -0.44007  -0.43193
 Alpha  occ. eigenvalues --   -0.42473  -0.42327  -0.41175  -0.40874  -0.40758
 Alpha  occ. eigenvalues --   -0.40674  -0.40399  -0.40119  -0.39838  -0.39405
 Alpha  occ. eigenvalues --   -0.39155  -0.38891  -0.38681  -0.38322  -0.37805
 Alpha  occ. eigenvalues --   -0.37414  -0.36506  -0.36439  -0.36063  -0.35020
 Alpha  occ. eigenvalues --   -0.34543  -0.34284  -0.31770  -0.31356  -0.30021
 Alpha  occ. eigenvalues --   -0.29280  -0.28827  -0.27759  -0.24267  -0.23970
 Alpha virt. eigenvalues --   -0.01227   0.00580   0.03207   0.03559   0.10151
 Alpha virt. eigenvalues --    0.10591   0.11334   0.12565   0.13170   0.13313
 Alpha virt. eigenvalues --    0.14144   0.14434   0.15050   0.15521   0.15548

 Mulliken charges:
               1
     1  C   -0.306441
     2  C   -0.307799
     3  C   -0.311059
     4  C   -0.060253
     5  C    0.064661
     6  C   -0.306871
     7  H    0.175527
     8  H    0.163268
     9  H    0.166780
    10  H    0.151113
    11  H    0.164960
    12  H    0.207140
    13  H    0.174784
    14  H    0.192838
    15  H    0.160817
    16  H    0.156297
    17  N   -0.437447
    18  C    0.078998
    19  C    0.079633
    20  C   -0.209062
    21  H    0.202939
    22  C   -0.220607
    23  H    0.243362
    24  C    0.449482
    25  H    0.192020
    26  H    0.209728
    27  N   -0.518378
    28  C   -0.165733
    29  H    0.166949
    30  H    0.221545
    31  C   -0.145639
    32  H    0.160340
    33  H    0.205478
    34  N   -0.809688
    35  S    1.238490
    36  O   -0.603307
    37  O   -0.591439
    38  C    0.050122
    39  C   -0.196376
    40  C   -0.192496
    41  C   -0.172325
    42  C   -0.165390
    43  C   -0.205050
    44  H    0.233741
    45  H    0.141745
    46  H    0.156230
    47  H    0.159820
    48  H    0.154195
    49  O   -0.597035
    50  H    0.449506
    51  C    0.715790
    52  O   -0.691272
    53  O   -0.703345
    54  H    0.432277
    55  C   -0.340430
    56  H    0.143647
    57  H    0.150787
    58  C   -0.081006
    59  H    0.131337
    60  H    0.156314
    61  C   -0.666168
    62  H    0.268283
    63  H    0.200273
    64  H    0.222763
    65  C   -0.285229
    66  H    0.142506
    67  H    0.140322
    68  C   -0.474814
    69  H    0.148169
    70  H    0.149341
    71  H    0.148404
    72  C   -0.333991
    73  H    0.184470
    74  H    0.159931
    75  C   -0.338304
    76  H    0.204879
    77  H    0.164952
 Sum of Mulliken charges =  -0.00000

 Dipole moment (field-independent basis, Debye):
    X=             -3.5889    Y=             -1.5753    Z=             -5.7119  Tot=              6.9274
 Quadrupole moment (field-independent basis, Debye-Ang):
   XX=           -208.6340   YY=           -222.3713   ZZ=           -218.3342
   XY=            -13.3700   XZ=             -4.0879   YZ=             10.7735

 Normal termination of Gaussian 16 at Thu Feb  7 10:12:02 2019.
