 Gaussian 16, Revision A.03,
 Gaussian 16:  ES64L-G16RevA.03 25-Dec-2016

 ------------------------------------------
 #p M062X/6-31G* em=gd3 force int=ultrafine
 ------------------------------------------

 -----
 Title
 -----
 Symbolic Z-matrix:
 Charge =  0 Multiplicity = 1

                         Standard orientation:
 ---------------------------------------------------------------------
 Center     Atomic      Atomic             Coordinates (Angstroms)
 Number     Number       Type             X           Y           Z
 ---------------------------------------------------------------------
      1          6           0       -4.782396    0.364307   -0.609135
      2          6           0       -4.938218   -0.929390   -1.414103
      3          6           0       -3.594063   -1.367419   -2.008625
      4          6           0       -2.597616   -1.560299   -0.871477
      5          6           0       -2.394944   -0.239628   -0.083562
      6          6           0       -3.735719    0.220460    0.500227
      7          1           0       -3.694911   -2.292607   -2.586160
      8          1           0       -5.321082   -1.725971   -0.762749
      9          1           0       -5.669023   -0.794248   -2.217608
     10          1           0       -4.476901    1.172353   -1.286528
     11          1           0       -5.744952    0.654625   -0.175545
     12          1           0       -2.978122   -2.320987   -0.182799
     13          1           0       -2.075778    0.518408   -0.810393
     14          1           0       -4.079552   -0.503430    1.246545
     15          1           0       -3.577429    1.180686    1.002444
     16          1           0       -3.246811   -0.580093   -2.691321
     17          7           0       -1.262234   -2.030267   -1.295041
     18          6           0       -0.577007   -1.362439   -2.260355
     19          6           0       -0.563889   -2.794891   -0.412969
     20          6           0        0.780522   -1.400832   -2.345877
     21          1           0       -1.171907   -0.767559   -2.942356
     22          6           0        0.794558   -2.860345   -0.417476
     23          1           0       -1.155290   -3.295428    0.346059
     24          6           0        1.533479   -2.057571   -1.326957
     25          1           0        1.269623   -0.847179   -3.135677
     26          1           0        1.280884   -3.426583    0.364135
     27          7           0        2.852796   -1.931054   -1.234040
     28          6           0        3.575667   -2.325901   -0.014638
     29          1           0        3.473599   -3.399868    0.163826
     30          1           0        3.158995   -1.755957    0.829256
     31          6           0        3.576604   -0.886994   -1.970065
     32          1           0        3.830623   -1.244444   -2.975526
     33          1           0        2.941056   -0.000114   -2.043115
     34          7           0       -1.291449   -0.315751    0.860520
     35         16           0       -1.361900   -1.156370    2.254058
     36          8           0       -2.550727   -2.014583    2.222345
     37          8           0       -0.065730   -1.802808    2.478870
     38          6           0       -0.636311    2.701481    0.053571
     39          6           0       -0.161952    2.239339   -1.184087
     40          6           0       -0.954573    2.325897   -2.326690
     41          6           0       -2.239065    2.867405   -2.266184
     42          6           0       -2.724498    3.322583   -1.043722
     43          6           0       -1.924940    3.240605    0.096798
     44          1           0        0.808885    1.759673   -1.222708
     45          1           0       -0.559799    1.973879   -3.277411
     46          1           0       -2.851124    2.938890   -3.161114
     47          1           0       -3.722250    3.747482   -0.975828
     48          1           0       -2.311416    3.611450    1.044197
     49          8           0        0.677682    1.572088    1.909348
     50          1           0       -0.300665   -0.066852    0.556866
     51          6           0        1.805185    0.837613    1.264060
     52          8           0        1.390845    0.229573    0.170110
     53          8           0        2.196249   -0.045197    2.300543
     54          1           0        1.495310   -0.720962    2.338617
     55          6           0        3.016834    1.798332    1.127289
     56          1           0        2.988741    2.519548    1.954165
     57          1           0        3.903466    1.177907    1.310343
     58          6           0        0.215608    2.758771    1.324793
     59          1           0       -0.403461    3.237202    2.094910
     60          1           0        1.054227    3.446693    1.141097
     61          6           0       -1.556495    0.062682    3.533199
     62          1           0       -0.696814    0.732766    3.444661
     63          1           0       -2.495713    0.590755    3.359523
     64          1           0       -1.573548   -0.459215    4.491384
     65          6           0        3.195294    2.517641   -0.206768
     66          1           0        3.123826    1.783651   -1.016293
     67          1           0        2.386581    3.233590   -0.388483
     68          6           0        4.535600    3.248595   -0.282376
     69          1           0        4.665323    3.762202   -1.240117
     70          1           0        4.616386    3.996490    0.513027
     71          1           0        5.370940    2.550037   -0.158368
     72          6           0        5.011067   -1.913303   -0.322096
     73          1           0        5.596609   -1.771275    0.588088
     74          1           0        5.501139   -2.676005   -0.937072
     75          6           0        4.818896   -0.618064   -1.115205
     76          1           0        4.598604    0.198711   -0.423600
     77          1           0        5.686046   -0.341166   -1.718510
 ---------------------------------------------------------------------

 SCF Done:  E(RM062X) =  -1991.35888073     A.U. after   14 cycles

 The electronic state is 1-A.
 Alpha  occ. eigenvalues --  -90.14076 -19.61695 -19.61676 -19.58770 -19.56734
 Alpha  occ. eigenvalues --  -19.51383 -14.85135 -14.80457 -14.75526 -10.63396
 Alpha  occ. eigenvalues --  -10.62769 -10.62320 -10.62100 -10.60670 -10.59241
 Alpha  occ. eigenvalues --  -10.58651 -10.57948 -10.57894 -10.57088 -10.56877
 Alpha  occ. eigenvalues --  -10.56661 -10.55617 -10.55575 -10.55165 -10.54977
 Alpha  occ. eigenvalues --  -10.54791 -10.54729 -10.54672 -10.54521 -10.54352
 Alpha  occ. eigenvalues --  -10.54275 -10.54229 -10.53102 -10.51636 -10.51540
 Alpha  occ. eigenvalues --  -10.49782  -8.45055  -6.37270  -6.37249  -6.37092
 Alpha  occ. eigenvalues --   -1.21907  -1.13645  -1.13485  -1.10159  -1.09355
 Alpha  occ. eigenvalues --   -1.05912  -1.01618  -0.99401  -0.95695  -0.94955
 Alpha  occ. eigenvalues --   -0.93463  -0.90255  -0.88753  -0.85895  -0.85816
 Alpha  occ. eigenvalues --   -0.84799  -0.84661  -0.84305  -0.83029  -0.82623
 Alpha  occ. eigenvalues --   -0.76647  -0.76358  -0.75832  -0.74399  -0.72722
 Alpha  occ. eigenvalues --   -0.71582  -0.68333  -0.68279  -0.67925  -0.67160
 Alpha  occ. eigenvalues --   -0.66765  -0.65202  -0.64871  -0.63521  -0.60579
 Alpha  occ. eigenvalues --   -0.60406  -0.59798  -0.58874  -0.57825  -0.57559
 Alpha  occ. eigenvalues --   -0.57138  -0.56426  -0.55721  -0.55159  -0.54172
 Alpha  occ. eigenvalues --   -0.53475  -0.52635  -0.52402  -0.52366  -0.51886
 Alpha  occ. eigenvalues --   -0.51529  -0.51074  -0.50926  -0.49848  -0.49598
 Alpha  occ. eigenvalues --   -0.49158  -0.48807  -0.48203  -0.48108  -0.48072
 Alpha  occ. eigenvalues --   -0.47628  -0.47432  -0.46895  -0.46469  -0.46094
 Alpha  occ. eigenvalues --   -0.44913  -0.44682  -0.44097  -0.43885  -0.43251
 Alpha  occ. eigenvalues --   -0.42456  -0.42087  -0.41520  -0.41418  -0.41177
 Alpha  occ. eigenvalues --   -0.40879  -0.40450  -0.40013  -0.39846  -0.39455
 Alpha  occ. eigenvalues --   -0.39251  -0.39046  -0.38452  -0.37891  -0.37583
 Alpha  occ. eigenvalues --   -0.37365  -0.36726  -0.36573  -0.35688  -0.34880
 Alpha  occ. eigenvalues --   -0.34358  -0.33897  -0.31726  -0.30998  -0.29732
 Alpha  occ. eigenvalues --   -0.28887  -0.28572  -0.27592  -0.24983  -0.24516
 Alpha virt. eigenvalues --   -0.01449   0.00464   0.03599   0.03810   0.10179
 Alpha virt. eigenvalues --    0.11052   0.11611   0.12114   0.13215   0.13554
 Alpha virt. eigenvalues --    0.14200   0.14674   0.14798   0.15313   0.15600

 Mulliken charges:
               1
     1  C   -0.306109
     2  C   -0.306925
     3  C   -0.310021
     4  C   -0.059372
     5  C    0.057222
     6  C   -0.311876
     7  H    0.173742
     8  H    0.162802
     9  H    0.165180
    10  H    0.150756
    11  H    0.162973
    12  H    0.208499
    13  H    0.172575
    14  H    0.193389
    15  H    0.163417
    16  H    0.153820
    17  N   -0.431779
    18  C    0.069275
    19  C    0.064123
    20  C   -0.204392
    21  H    0.206915
    22  C   -0.209018
    23  H    0.245833
    24  C    0.449171
    25  H    0.191096
    26  H    0.211742
    27  N   -0.528187
    28  C   -0.174420
    29  H    0.169883
    30  H    0.234752
    31  C   -0.154099
    32  H    0.167841
    33  H    0.201349
    34  N   -0.817126
    35  S    1.253903
    36  O   -0.612025
    37  O   -0.608920
    38  C    0.089473
    39  C   -0.179114
    40  C   -0.189057
    41  C   -0.170620
    42  C   -0.163682
    43  C   -0.212129
    44  H    0.204789
    45  H    0.141061
    46  H    0.154661
    47  H    0.158375
    48  H    0.152331
    49  O   -0.548148
    50  H    0.449581
    51  C    0.727514
    52  O   -0.724282
    53  O   -0.718190
    54  H    0.445663
    55  C   -0.337949
    56  H    0.150060
    57  H    0.149266
    58  C   -0.094097
    59  H    0.141212
    60  H    0.146882
    61  C   -0.662800
    62  H    0.271400
    63  H    0.196284
    64  H    0.217338
    65  C   -0.295648
    66  H    0.141164
    67  H    0.146946
    68  C   -0.475545
    69  H    0.149346
    70  H    0.156120
    71  H    0.143915
    72  C   -0.331825
    73  H    0.187578
    74  H    0.163493
    75  C   -0.344059
    76  H    0.195048
    77  H    0.171656
 Sum of Mulliken charges =  -0.00000

 Dipole moment (field-independent basis, Debye):
    X=             -2.2104    Y=             -1.8594    Z=             -6.4712  Tot=              7.0866
 Quadrupole moment (field-independent basis, Debye-Ang):
   XX=           -204.9945   YY=           -223.2661   ZZ=           -219.7879
   XY=            -12.1136   XZ=             -5.3288   YZ=             10.0881

 Normal termination of Gaussian 16 at Thu Feb  7 16:36:16 2019.
