 Gaussian 16, Revision A.03,
 Gaussian 16:  ES64L-G16RevA.03 25-Dec-2016

 ------------------------------------------
 #p M062X/6-31G* em=gd3 force int=ultrafine
 ------------------------------------------

 -----
 Title
 -----
 Symbolic Z-matrix:
 Charge =  0 Multiplicity = 1

                         Standard orientation:
 ---------------------------------------------------------------------
 Center     Atomic      Atomic             Coordinates (Angstroms)
 Number     Number       Type             X           Y           Z
 ---------------------------------------------------------------------
      1          6           0       -4.864645    0.033777   -0.415240
      2          6           0       -4.886268   -1.241609   -1.263283
      3          6           0       -3.501401   -1.525295   -1.857373
      4          6           0       -2.496383   -1.652149   -0.717316
      5          6           0       -2.416086   -0.337362    0.108497
      6          6           0       -3.807026   -0.042017    0.690013
      7          1           0       -3.509279   -2.437441   -2.465022
      8          1           0       -5.192167   -2.092743   -0.640772
      9          1           0       -5.621300   -1.154900   -2.070185
     10          1           0       -4.636098    0.889854   -1.065578
     11          1           0       -5.855173    0.213729    0.016161
     12          1           0       -2.801080   -2.465159   -0.053175
     13          1           0       -2.210352    0.452951   -0.628408
     14          1           0       -4.067180   -0.822282    1.416587
     15          1           0       -3.748726    0.912185    1.227936
     16          1           0       -3.232343   -0.685121   -2.512536
     17          7           0       -1.126223   -1.995862   -1.162880
     18          6           0       -0.521381   -1.290374   -2.145786
     19          6           0       -0.364914   -2.756732   -0.341608
     20          6           0        0.831817   -1.307136   -2.326633
     21          1           0       -1.169867   -0.687436   -2.768313
     22          6           0        0.994227   -2.820856   -0.457792
     23          1           0       -0.895411   -3.270568    0.452833
     24          6           0        1.659497   -2.015387   -1.412478
     25          1           0        1.257917   -0.726658   -3.134269
     26          1           0        1.536935   -3.406218    0.271154
     27          7           0        2.995277   -1.913967   -1.436399
     28          6           0        3.804215   -2.434844   -0.327934
     29          1           0        3.750787   -3.526935   -0.288815
     30          1           0        3.422805   -2.023549    0.617255
     31          6           0        3.681084   -0.819371   -2.139354
     32          1           0        3.933243   -1.125943   -3.162043
     33          1           0        3.035583    0.062372   -2.167140
     34          7           0       -1.294488   -0.293464    1.025055
     35         16           0       -1.254365   -1.253294    2.278136
     36          8           0       -2.235280   -2.360149    2.226874
     37          8           0        0.147004   -1.693935    2.519178
     38          6           0       -1.208292    2.840401   -0.175887
     39          6           0       -0.435376    2.203744   -1.151963
     40          6           0       -0.919197    2.084425   -2.453487
     41          6           0       -2.185291    2.563468   -2.788990
     42          6           0       -2.965189    3.180684   -1.812478
     43          6           0       -2.473543    3.319905   -0.516884
     44          1           0        0.519635    1.762807   -0.872063
     45          1           0       -0.304075    1.606532   -3.212742
     46          1           0       -2.562269    2.459969   -3.802256
     47          1           0       -3.956713    3.550603   -2.057237
     48          1           0       -3.085283    3.795133    0.247215
     49          8           0        0.184037    1.957128    1.608345
     50          1           0       -0.272231    1.101227    1.360875
     51          6           0        2.432550    0.666719    1.263930
     52          8           0        2.149406    0.220011    0.165010
     53          8           0        2.162236    0.050041    2.401222
     54          1           0        1.487912   -0.673273    2.268657
     55          6           0        3.185907    1.959625    1.470947
     56          1           0        2.725533    2.468245    2.322526
     57          1           0        4.214660    1.708043    1.767322
     58          6           0       -0.690553    2.984534    1.241309
     59          1           0       -1.551271    3.055748    1.926991
     60          1           0       -0.134110    3.926649    1.332924
     61          6           0       -1.652922   -0.256331    3.710971
     62          1           0       -0.963405    0.591534    3.714209
     63          1           0       -2.684843    0.086194    3.611241
     64          1           0       -1.531117   -0.862930    4.609389
     65          6           0        3.176616    2.843855    0.231128
     66          1           0        3.594196    2.289277   -0.618079
     67          1           0        2.134105    3.060454   -0.026914
     68          6           0        3.945960    4.144078    0.442604
     69          1           0        3.931419    4.766145   -0.457003
     70          1           0        3.508940    4.726910    1.260178
     71          1           0        4.992918    3.947927    0.698868
     72          6           0        5.206898   -1.919155   -0.637531
     73          1           0        5.821482   -1.845248    0.261827
     74          1           0        5.707886   -2.589767   -1.343385
     75          6           0        4.928546   -0.562657   -1.289672
     76          1           0        4.678803    0.173221   -0.519532
     77          1           0        5.765108   -0.184177   -1.880576
 ---------------------------------------------------------------------

 SCF Done:  E(RM062X) =  -1991.39035198     A.U. after   15 cycles

 The electronic state is 1-A.
 Alpha  occ. eigenvalues --  -90.10396 -19.63393 -19.60111 -19.59325 -19.58628
 Alpha  occ. eigenvalues --  -19.58375 -14.84818 -14.80534 -14.69436 -10.65448
 Alpha  occ. eigenvalues --  -10.63245 -10.62385 -10.61531 -10.59162 -10.59133
 Alpha  occ. eigenvalues --  -10.59022 -10.57816 -10.57407 -10.56856 -10.56650
 Alpha  occ. eigenvalues --  -10.56086 -10.55779 -10.55488 -10.54965 -10.54917
 Alpha  occ. eigenvalues --  -10.54856 -10.54572 -10.54535 -10.54485 -10.53790
 Alpha  occ. eigenvalues --  -10.53738 -10.53557 -10.53121 -10.52935 -10.52643
 Alpha  occ. eigenvalues --  -10.52504  -8.41362  -6.33600  -6.33507  -6.33427
 Alpha  occ. eigenvalues --   -1.19137  -1.17937  -1.12951  -1.10343  -1.09855
 Alpha  occ. eigenvalues --   -1.09178  -1.06203  -0.97563  -0.95243  -0.94832
 Alpha  occ. eigenvalues --   -0.92195  -0.89862  -0.88603  -0.87992  -0.85018
 Alpha  occ. eigenvalues --   -0.84966  -0.83649  -0.83505  -0.83301  -0.80220
 Alpha  occ. eigenvalues --   -0.79088  -0.76371  -0.75672  -0.74675  -0.70950
 Alpha  occ. eigenvalues --   -0.70196  -0.69041  -0.68745  -0.68370  -0.67984
 Alpha  occ. eigenvalues --   -0.65736  -0.64725  -0.63961  -0.63435  -0.61656
 Alpha  occ. eigenvalues --   -0.60283  -0.59409  -0.58946  -0.58372  -0.56177
 Alpha  occ. eigenvalues --   -0.55475  -0.55159  -0.55066  -0.54021  -0.53663
 Alpha  occ. eigenvalues --   -0.53435  -0.53085  -0.52337  -0.51982  -0.51731
 Alpha  occ. eigenvalues --   -0.51172  -0.51014  -0.50612  -0.50247  -0.49831
 Alpha  occ. eigenvalues --   -0.49627  -0.49433  -0.48853  -0.48371  -0.48014
 Alpha  occ. eigenvalues --   -0.47765  -0.47171  -0.46969  -0.46881  -0.45952
 Alpha  occ. eigenvalues --   -0.45876  -0.45254  -0.43969  -0.43652  -0.43423
 Alpha  occ. eigenvalues --   -0.42755  -0.42431  -0.42279  -0.41920  -0.41868
 Alpha  occ. eigenvalues --   -0.41161  -0.40822  -0.40601  -0.39927  -0.39518
 Alpha  occ. eigenvalues --   -0.39376  -0.39177  -0.38706  -0.38375  -0.37789
 Alpha  occ. eigenvalues --   -0.37376  -0.36278  -0.35931  -0.35385  -0.35107
 Alpha  occ. eigenvalues --   -0.34422  -0.33159  -0.32124  -0.31690  -0.31513
 Alpha  occ. eigenvalues --   -0.29829  -0.28882  -0.28325  -0.27550  -0.25452
 Alpha virt. eigenvalues --   -0.01022   0.00642   0.03341   0.03822   0.09091
 Alpha virt. eigenvalues --    0.10116   0.10952   0.11738   0.13009   0.13404
 Alpha virt. eigenvalues --    0.13802   0.14192   0.15226   0.15543   0.15733

 Mulliken charges:
               1
     1  C   -0.303996
     2  C   -0.304213
     3  C   -0.309826
     4  C   -0.073518
     5  C    0.061911
     6  C   -0.305319
     7  H    0.165773
     8  H    0.160896
     9  H    0.159204
    10  H    0.146765
    11  H    0.156629
    12  H    0.213207
    13  H    0.141399
    14  H    0.180040
    15  H    0.148454
    16  H    0.151424
    17  N   -0.424689
    18  C    0.100619
    19  C    0.084535
    20  C   -0.228107
    21  H    0.205750
    22  C   -0.227321
    23  H    0.264069
    24  C    0.428718
    25  H    0.188304
    26  H    0.206705
    27  N   -0.529655
    28  C   -0.156605
    29  H    0.178444
    30  H    0.198888
    31  C   -0.147435
    32  H    0.169498
    33  H    0.196598
    34  N   -0.754822
    35  S    1.248967
    36  O   -0.646994
    37  O   -0.670953
    38  C    0.048654
    39  C   -0.177133
    40  C   -0.186996
    41  C   -0.170190
    42  C   -0.162579
    43  C   -0.197177
    44  H    0.200877
    45  H    0.139812
    46  H    0.156467
    47  H    0.161748
    48  H    0.156112
    49  O   -0.709557
    50  H    0.479772
    51  C    0.642381
    52  O   -0.523850
    53  O   -0.643410
    54  H    0.485569
    55  C   -0.366578
    56  H    0.199519
    57  H    0.163863
    58  C   -0.069593
    59  H    0.129219
    60  H    0.162014
    61  C   -0.655257
    62  H    0.217845
    63  H    0.188248
    64  H    0.208272
    65  C   -0.286873
    66  H    0.142872
    67  H    0.169118
    68  C   -0.480511
    69  H    0.158211
    70  H    0.158789
    71  H    0.149414
    72  C   -0.337508
    73  H    0.183858
    74  H    0.170110
    75  C   -0.335552
    76  H    0.183254
    77  H    0.173421
 Sum of Mulliken charges =  -0.00000

 Dipole moment (field-independent basis, Debye):
    X=              1.5864    Y=             -0.4210    Z=             -6.4801  Tot=              6.6847
 Quadrupole moment (field-independent basis, Debye-Ang):
   XX=           -197.6100   YY=           -223.8590   ZZ=           -221.4804
   XY=            -12.2293   XZ=             -1.5993   YZ=             12.2207

 Normal termination of Gaussian 16 at Fri Feb  8 01:29:35 2019.
