 Gaussian 16, Revision A.03,
 Gaussian 16:  ES64L-G16RevA.03 25-Dec-2016

 ------------------------------------------
 #p M062X/6-31G* em=gd3 force int=ultrafine
 ------------------------------------------

 -----
 Title
 -----
 Symbolic Z-matrix:
 Charge =  0 Multiplicity = 1

                         Standard orientation:
 ---------------------------------------------------------------------
 Center     Atomic      Atomic             Coordinates (Angstroms)
 Number     Number       Type             X           Y           Z
 ---------------------------------------------------------------------
      1          6           0       -4.870167    0.140971   -0.440681
      2          6           0       -4.939458   -1.151002   -1.260428
      3          6           0       -3.566185   -1.500072   -1.846970
      4          6           0       -2.560112   -1.628557   -0.707615
      5          6           0       -2.438502   -0.299331    0.091618
      6          6           0       -3.818833    0.047758    0.669458
      7          1           0       -3.607896   -2.428314   -2.428385
      8          1           0       -5.278765   -1.975635   -0.619931
      9          1           0       -5.669641   -1.054268   -2.070737
     10          1           0       -4.605063    0.972530   -1.108875
     11          1           0       -5.854251    0.370424   -0.018268
     12          1           0       -2.883411   -2.418654   -0.024169
     13          1           0       -2.212874    0.471446   -0.660699
     14          1           0       -4.105030   -0.712591    1.407245
     15          1           0       -3.730438    1.007608    1.192318
     16          1           0       -3.271078   -0.689399   -2.527330
     17          7           0       -1.200632   -2.017397   -1.150320
     18          6           0       -0.580829   -1.348213   -2.149686
     19          6           0       -0.452383   -2.765278   -0.305275
     20          6           0        0.773028   -1.386571   -2.322304
     21          1           0       -1.218135   -0.756098   -2.793736
     22          6           0        0.906611   -2.848137   -0.410849
     23          1           0       -0.992789   -3.251313    0.499957
     24          6           0        1.587577   -2.075631   -1.381372
     25          1           0        1.209995   -0.833654   -3.143382
     26          1           0        1.436824   -3.416784    0.340135
     27          7           0        2.924671   -1.985251   -1.393827
     28          6           0        3.712786   -2.466257   -0.251929
     29          1           0        3.654665   -3.555735   -0.172373
     30          1           0        3.316829   -2.018649    0.670433
     31          6           0        3.626047   -0.917752   -2.123222
     32          1           0        3.887934   -1.258738   -3.132258
     33          1           0        2.986717   -0.033312   -2.187798
     34          7           0       -1.310294   -0.270864    0.997882
     35         16           0       -1.276461   -1.191337    2.280944
     36          8           0       -2.289040   -2.270678    2.277384
     37          8           0        0.117588   -1.659135    2.512851
     38          6           0       -1.028698    2.857874   -0.160047
     39          6           0       -0.349558    2.169866   -1.172331
     40          6           0       -0.918683    2.060157   -2.439102
     41          6           0       -2.181308    2.593694   -2.701109
     42          6           0       -2.872959    3.248788   -1.685031
     43          6           0       -2.293140    3.381242   -0.425297
     44          1           0        0.600693    1.687944   -0.948443
     45          1           0       -0.374245    1.549248   -3.230175
     46          1           0       -2.624264    2.499955   -3.688207
     47          1           0       -3.862743    3.656108   -1.869091
     48          1           0       -2.832228    3.889125    0.371265
     49          8           0        0.251893    1.863555    1.646356
     50          1           0       -0.289380    1.073450    1.346641
     51          6           0        2.441349    0.634375    1.195146
     52          8           0        2.102773    0.202672    0.106996
     53          8           0        2.240783   -0.008417    2.334809
     54          1           0        1.526481   -0.695494    2.230188
     55          6           0        3.191296    1.932791    1.381017
     56          1           0        2.690879    2.472219    2.190864
     57          1           0        4.203716    1.695682    1.736826
     58          6           0       -0.412149    3.014532    1.213984
     59          1           0       -1.196584    3.327005    1.922901
     60          1           0        0.331785    3.825065    1.190850
     61          6           0       -1.618912   -0.132601    3.683846
     62          1           0       -0.895069    0.685182    3.646596
     63          1           0       -2.636885    0.249048    3.583944
     64          1           0       -1.509129   -0.712082    4.601440
     65          6           0        3.239218    2.769088    0.108299
     66          1           0        3.663484    2.171939   -0.707908
     67          1           0        2.213112    3.005532   -0.195227
     68          6           0        4.040399    4.054893    0.287903
     69          1           0        4.078566    4.632444   -0.640271
     70          1           0        3.594606    4.690333    1.060333
     71          1           0        5.070502    3.838291    0.591257
     72          6           0        5.123200   -1.967895   -0.554574
     73          1           0        5.718071   -1.856679    0.354220
     74          1           0        5.637034   -2.669092   -1.219947
     75          6           0        4.865809   -0.638763   -1.268576
     76          1           0        4.617125    0.131870   -0.533624
     77          1           0        5.713418   -0.293758   -1.864239
 ---------------------------------------------------------------------

 SCF Done:  E(RM062X) =  -1991.38770905     A.U. after   15 cycles

 The electronic state is 1-A.
 Alpha  occ. eigenvalues --  -90.10317 -19.63408 -19.60108 -19.59121 -19.58509
 Alpha  occ. eigenvalues --  -19.58320 -14.84789 -14.80475 -14.69341 -10.65530
 Alpha  occ. eigenvalues --  -10.63215 -10.62408 -10.61504 -10.59121 -10.59092
 Alpha  occ. eigenvalues --  -10.59011 -10.57822 -10.57412 -10.56790 -10.56667
 Alpha  occ. eigenvalues --  -10.56004 -10.55732 -10.55550 -10.54994 -10.54932
 Alpha  occ. eigenvalues --  -10.54882 -10.54608 -10.54569 -10.54505 -10.53829
 Alpha  occ. eigenvalues --  -10.53602 -10.53571 -10.53250 -10.53203 -10.52694
 Alpha  occ. eigenvalues --  -10.52619  -8.41279  -6.33517  -6.33425  -6.33344
 Alpha  occ. eigenvalues --   -1.19155  -1.17830  -1.12927  -1.10240  -1.09881
 Alpha  occ. eigenvalues --   -1.09118  -1.06097  -0.97527  -0.95287  -0.94773
 Alpha  occ. eigenvalues --   -0.92184  -0.89838  -0.88568  -0.88162  -0.85037
 Alpha  occ. eigenvalues --   -0.84918  -0.83662  -0.83510  -0.83299  -0.80141
 Alpha  occ. eigenvalues --   -0.79228  -0.76334  -0.75639  -0.74682  -0.70935
 Alpha  occ. eigenvalues --   -0.70208  -0.69166  -0.68697  -0.68348  -0.68038
 Alpha  occ. eigenvalues --   -0.65873  -0.64733  -0.63928  -0.63441  -0.61602
 Alpha  occ. eigenvalues --   -0.60258  -0.59377  -0.59025  -0.58349  -0.56159
 Alpha  occ. eigenvalues --   -0.55474  -0.55191  -0.55089  -0.54172  -0.53737
 Alpha  occ. eigenvalues --   -0.53444  -0.53062  -0.52487  -0.51937  -0.51694
 Alpha  occ. eigenvalues --   -0.51109  -0.50975  -0.50611  -0.50098  -0.49832
 Alpha  occ. eigenvalues --   -0.49589  -0.49533  -0.48804  -0.48333  -0.47991
 Alpha  occ. eigenvalues --   -0.47810  -0.47183  -0.47019  -0.46978  -0.45900
 Alpha  occ. eigenvalues --   -0.45725  -0.45227  -0.43944  -0.43656  -0.43434
 Alpha  occ. eigenvalues --   -0.42794  -0.42602  -0.42206  -0.42000  -0.41880
 Alpha  occ. eigenvalues --   -0.41163  -0.40885  -0.40543  -0.39896  -0.39558
 Alpha  occ. eigenvalues --   -0.39360  -0.39246  -0.38871  -0.38391  -0.37948
 Alpha  occ. eigenvalues --   -0.37312  -0.36214  -0.35826  -0.35340  -0.35134
 Alpha  occ. eigenvalues --   -0.34347  -0.33069  -0.32037  -0.31670  -0.31492
 Alpha  occ. eigenvalues --   -0.29884  -0.28870  -0.28317  -0.27406  -0.25371
 Alpha virt. eigenvalues --   -0.01030   0.00664   0.03227   0.03766   0.09007
 Alpha virt. eigenvalues --    0.10168   0.10906   0.11815   0.12963   0.13542
 Alpha virt. eigenvalues --    0.13867   0.14283   0.15016   0.15481   0.15808

 Mulliken charges:
               1
     1  C   -0.303914
     2  C   -0.304181
     3  C   -0.309607
     4  C   -0.073112
     5  C    0.063848
     6  C   -0.305003
     7  H    0.166343
     8  H    0.161008
     9  H    0.159135
    10  H    0.145829
    11  H    0.156774
    12  H    0.212101
    13  H    0.141238
    14  H    0.179365
    15  H    0.149990
    16  H    0.150164
    17  N   -0.424048
    18  C    0.099155
    19  C    0.084373
    20  C   -0.227388
    21  H    0.204754
    22  C   -0.226481
    23  H    0.263627
    24  C    0.427769
    25  H    0.187952
    26  H    0.207358
    27  N   -0.528202
    28  C   -0.158132
    29  H    0.178335
    30  H    0.198914
    31  C   -0.146570
    32  H    0.169585
    33  H    0.195028
    34  N   -0.757896
    35  S    1.249299
    36  O   -0.645356
    37  O   -0.670064
    38  C    0.048840
    39  C   -0.176581
    40  C   -0.187572
    41  C   -0.169688
    42  C   -0.161568
    43  C   -0.198680
    44  H    0.204534
    45  H    0.139158
    46  H    0.156536
    47  H    0.161984
    48  H    0.157509
    49  O   -0.714422
    50  H    0.483242
    51  C    0.652480
    52  O   -0.522004
    53  O   -0.646467
    54  H    0.485457
    55  C   -0.369768
    56  H    0.202002
    57  H    0.164758
    58  C   -0.064744
    59  H    0.127621
    60  H    0.152828
    61  C   -0.658779
    62  H    0.222410
    63  H    0.187295
    64  H    0.207226
    65  C   -0.288184
    66  H    0.144665
    67  H    0.163620
    68  C   -0.480332
    69  H    0.158898
    70  H    0.158413
    71  H    0.151071
    72  C   -0.337083
    73  H    0.184361
    74  H    0.169953
    75  C   -0.335862
    76  H    0.181795
    77  H    0.173091
 Sum of Mulliken charges =  -0.00000

 Dipole moment (field-independent basis, Debye):
    X=              1.5438    Y=             -0.2968    Z=             -6.5977  Tot=              6.7824
 Quadrupole moment (field-independent basis, Debye-Ang):
   XX=           -198.7561   YY=           -222.6582   ZZ=           -222.3175
   XY=            -11.7702   XZ=             -0.5746   YZ=             12.5559

 Normal termination of Gaussian 16 at Thu Feb  7 23:31:18 2019.
