 Gaussian 16, Revision A.03,
 Gaussian 16:  ES64L-G16RevA.03 25-Dec-2016

 ------------------------------------------
 #p M062X/6-31G* em=gd3 force int=ultrafine
 ------------------------------------------

 -----
 Title
 -----
 Symbolic Z-matrix:
 Charge =  0 Multiplicity = 1

                         Standard orientation:
 ---------------------------------------------------------------------
 Center     Atomic      Atomic             Coordinates (Angstroms)
 Number     Number       Type             X           Y           Z
 ---------------------------------------------------------------------
      1          6           0       -4.782931    0.265607   -0.725623
      2          6           0       -4.894635   -1.063355   -1.478682
      3          6           0       -3.528058   -1.498283   -2.021429
      4          6           0       -2.554704   -1.622725   -0.854857
      5          6           0       -2.398608   -0.267911   -0.115617
      6          6           0       -3.763841    0.185669    0.415207
      7          1           0       -3.596163   -2.448628   -2.561837
      8          1           0       -5.278391   -1.839247   -0.803358
      9          1           0       -5.607437   -0.976929   -2.304787
     10          1           0       -4.474102    1.050857   -1.428042
     11          1           0       -5.761534    0.555563   -0.329261
     12          1           0       -2.935135   -2.363437   -0.144538
     13          1           0       -2.075273    0.467807   -0.863576
     14          1           0       -4.113718   -0.517139    1.178346
     15          1           0       -3.638625    1.166610    0.885185
     16          1           0       -3.180791   -0.733045   -2.728637
     17          7           0       -1.201614   -2.081636   -1.231124
     18          6           0       -0.515983   -1.458004   -2.224742
     19          6           0       -0.502509   -2.788160   -0.302131
     20          6           0        0.842454   -1.486104   -2.297936
     21          1           0       -1.111498   -0.909957   -2.944206
     22          6           0        0.856570   -2.835159   -0.290441
     23          1           0       -1.095270   -3.257654    0.475364
     24          6           0        1.593799   -2.077080   -1.238805
     25          1           0        1.331829   -0.972013   -3.113760
     26          1           0        1.342947   -3.350882    0.525518
     27          7           0        2.911931   -1.935513   -1.148097
     28          6           0        3.637181   -2.262403    0.089835
     29          1           0        3.539237   -3.326222    0.323435
     30          1           0        3.217956   -1.653261    0.904907
     31          6           0        3.633069   -0.936099   -1.944940
     32          1           0        3.882556   -1.350127   -2.929698
     33          1           0        2.997689   -0.054443   -2.069174
     34          7           0       -1.318175   -0.283657    0.857740
     35         16           0       -1.411349   -1.068525    2.281376
     36          8           0       -2.591219   -1.939309    2.262807
     37          8           0       -0.115559   -1.694575    2.561210
     38          6           0       -0.666013    2.709642    0.012126
     39          6           0       -0.196441    2.248040   -1.227664
     40          6           0       -1.002940    2.310379   -2.361791
     41          6           0       -2.298015    2.825025   -2.289502
     42          6           0       -2.779866    3.276096   -1.064386
     43          6           0       -1.965134    3.220207    0.067081
     44          1           0        0.783541    1.788990   -1.275370
     45          1           0       -0.612259    1.959681   -3.314512
     46          1           0       -2.921989    2.877400   -3.177574
     47          1           0       -3.787075    3.677144   -0.986660
     48          1           0       -2.348433    3.588455    1.016749
     49          8           0        0.663389    1.624265    1.882755
     50          1           0       -0.320277   -0.043901    0.557338
     51          6           0        1.776254    0.870353    1.239471
     52          8           0        1.344958    0.248892    0.159735
     53          8           0        2.172531    0.003414    2.287707
     54          1           0        1.452735   -0.649031    2.368305
     55          6           0        2.998113    1.813955    1.071877
     56          1           0        2.985167    2.552106    1.883782
     57          1           0        3.878198    1.186058    1.260760
     58          6           0        0.202174    2.797761    1.270064
     59          1           0       -0.403209    3.303113    2.033940
     60          1           0        1.044090    3.472628    1.056219
     61          6           0       -1.643022    0.201998    3.503188
     62          1           0       -0.783256    0.871074    3.407903
     63          1           0       -2.579583    0.717910    3.283024
     64          1           0       -1.682503   -0.278325    4.482580
     65          6           0        3.176525    2.503055   -0.277817
     66          1           0        3.092674    1.751639   -1.070898
     67          1           0        2.373531    3.223272   -0.470214
     68          6           0        4.521259    3.222336   -0.375727
     69          1           0        4.650659    3.710965   -1.346540
     70          1           0        4.609946    3.989410    0.401041
     71          1           0        5.353665    2.522552   -0.236884
     72          6           0        5.071733   -1.864434   -0.242007
     73          1           0        5.657057   -1.666582    0.657887
     74          1           0        5.564013   -2.661637   -0.809528
     75          6           0        4.879983   -0.619703   -1.112906
     76          1           0        4.668752    0.240843   -0.473474
     77          1           0        5.745573   -0.385280   -1.736191
 ---------------------------------------------------------------------

 SCF Done:  E(RM062X) =  -1991.35898751     A.U. after   14 cycles

 The electronic state is 1-A.
 Alpha  occ. eigenvalues --  -90.14027 -19.61642 -19.61635 -19.58818 -19.56744
 Alpha  occ. eigenvalues --  -19.51393 -14.85108 -14.80461 -14.75412 -10.63362
 Alpha  occ. eigenvalues --  -10.62733 -10.62330 -10.62027 -10.60636 -10.59184
 Alpha  occ. eigenvalues --  -10.58783 -10.57876 -10.57866 -10.57027 -10.56855
 Alpha  occ. eigenvalues --  -10.56652 -10.55590 -10.55589 -10.55227 -10.55107
 Alpha  occ. eigenvalues --  -10.54713 -10.54699 -10.54598 -10.54435 -10.54281
 Alpha  occ. eigenvalues --  -10.54202 -10.54147 -10.53086 -10.51703 -10.51594
 Alpha  occ. eigenvalues --  -10.49815  -8.45006  -6.37221  -6.37201  -6.37045
 Alpha  occ. eigenvalues --   -1.21860  -1.13690  -1.13439  -1.10103  -1.09362
 Alpha  occ. eigenvalues --   -1.05906  -1.01559  -0.99438  -0.95660  -0.94890
 Alpha  occ. eigenvalues --   -0.93449  -0.90208  -0.88757  -0.85933  -0.85801
 Alpha  occ. eigenvalues --   -0.84756  -0.84619  -0.84360  -0.82970  -0.82579
 Alpha  occ. eigenvalues --   -0.76631  -0.76382  -0.75827  -0.74385  -0.72684
 Alpha  occ. eigenvalues --   -0.71540  -0.68357  -0.68297  -0.67880  -0.67127
 Alpha  occ. eigenvalues --   -0.66747  -0.65165  -0.64858  -0.63519  -0.60567
 Alpha  occ. eigenvalues --   -0.60404  -0.59791  -0.58792  -0.57860  -0.57523
 Alpha  occ. eigenvalues --   -0.57110  -0.56412  -0.55665  -0.55163  -0.54166
 Alpha  occ. eigenvalues --   -0.53418  -0.52613  -0.52376  -0.52329  -0.51836
 Alpha  occ. eigenvalues --   -0.51506  -0.51103  -0.50951  -0.49835  -0.49584
 Alpha  occ. eigenvalues --   -0.49162  -0.48795  -0.48214  -0.48106  -0.48048
 Alpha  occ. eigenvalues --   -0.47601  -0.47412  -0.46885  -0.46467  -0.46082
 Alpha  occ. eigenvalues --   -0.44938  -0.44633  -0.44050  -0.43866  -0.43242
 Alpha  occ. eigenvalues --   -0.42418  -0.42068  -0.41606  -0.41449  -0.41217
 Alpha  occ. eigenvalues --   -0.40870  -0.40426  -0.40022  -0.39867  -0.39560
 Alpha  occ. eigenvalues --   -0.39230  -0.39036  -0.38407  -0.37853  -0.37575
 Alpha  occ. eigenvalues --   -0.37335  -0.36727  -0.36557  -0.35662  -0.34866
 Alpha  occ. eigenvalues --   -0.34325  -0.33859  -0.31786  -0.30932  -0.29670
 Alpha  occ. eigenvalues --   -0.28879  -0.28501  -0.27530  -0.24997  -0.24531
 Alpha virt. eigenvalues --   -0.01357   0.00536   0.03664   0.03892   0.10255
 Alpha virt. eigenvalues --    0.11071   0.11511   0.12060   0.13212   0.13528
 Alpha virt. eigenvalues --    0.14249   0.14682   0.14849   0.15416   0.15604

 Mulliken charges:
               1
     1  C   -0.306045
     2  C   -0.306833
     3  C   -0.310600
     4  C   -0.058708
     5  C    0.056527
     6  C   -0.311574
     7  H    0.173748
     8  H    0.162952
     9  H    0.164978
    10  H    0.150234
    11  H    0.162831
    12  H    0.208308
    13  H    0.172207
    14  H    0.194014
    15  H    0.163246
    16  H    0.153509
    17  N   -0.433495
    18  C    0.070949
    19  C    0.065552
    20  C   -0.206480
    21  H    0.207202
    22  C   -0.209725
    23  H    0.245874
    24  C    0.453278
    25  H    0.190566
    26  H    0.211773
    27  N   -0.530796
    28  C   -0.178077
    29  H    0.169981
    30  H    0.239681
    31  C   -0.154223
    32  H    0.168931
    33  H    0.200012
    34  N   -0.817406
    35  S    1.254231
    36  O   -0.611286
    37  O   -0.610011
    38  C    0.093586
    39  C   -0.176299
    40  C   -0.188506
    41  C   -0.170259
    42  C   -0.163567
    43  C   -0.212007
    44  H    0.201126
    45  H    0.141800
    46  H    0.154318
    47  H    0.157857
    48  H    0.151601
    49  O   -0.547573
    50  H    0.449939
    51  C    0.728894
    52  O   -0.724373
    53  O   -0.718298
    54  H    0.445935
    55  C   -0.337201
    56  H    0.150525
    57  H    0.146971
    58  C   -0.096115
    59  H    0.141458
    60  H    0.146496
    61  C   -0.662446
    62  H    0.269678
    63  H    0.196263
    64  H    0.217228
    65  C   -0.295794
    66  H    0.142132
    67  H    0.147117
    68  C   -0.476718
    69  H    0.149667
    70  H    0.156495
    71  H    0.144187
    72  C   -0.331977
    73  H    0.187484
    74  H    0.163992
    75  C   -0.344744
    76  H    0.193535
    77  H    0.172263
 Sum of Mulliken charges =  -0.00000

 Dipole moment (field-independent basis, Debye):
    X=             -1.9195    Y=             -2.0578    Z=             -6.4953  Tot=              7.0787
 Quadrupole moment (field-independent basis, Debye-Ang):
   XX=           -204.3157   YY=           -223.0180   ZZ=           -220.1431
   XY=            -12.1056   XZ=             -4.9913   YZ=             10.3947

 Normal termination of Gaussian 16 at Thu Feb  7 17:58:11 2019.
