 Gaussian 16, Revision A.03,
 Gaussian 16:  ES64L-G16RevA.03 25-Dec-2016

 ------------------------------------------
 #p M062X/6-31G* em=gd3 force int=ultrafine
 ------------------------------------------

 -----
 Title
 -----
 Symbolic Z-matrix:
 Charge =  0 Multiplicity = 1

                         Standard orientation:
 ---------------------------------------------------------------------
 Center     Atomic      Atomic             Coordinates (Angstroms)
 Number     Number       Type             X           Y           Z
 ---------------------------------------------------------------------
      1          6           0       -4.806047    0.462422   -0.519280
      2          6           0       -5.011170   -0.846432   -1.288013
      3          6           0       -3.693013   -1.329249   -1.905316
      4          6           0       -2.669994   -1.516668   -0.790823
      5          6           0       -2.423416   -0.186076   -0.035391
      6          6           0       -3.737702    0.319138    0.569681
      7          1           0       -3.828695   -2.266383   -2.455641
      8          1           0       -5.394998   -1.617929   -0.607606
      9          1           0       -5.759236   -0.714481   -2.076018
     10          1           0       -4.496791    1.246264   -1.223349
     11          1           0       -5.751185    0.786620   -0.071728
     12          1           0       -3.043964   -2.257794   -0.077658
     13          1           0       -2.104600    0.550747   -0.783702
     14          1           0       -4.080611   -0.378014    1.341289
     15          1           0       -3.543885    1.286746    1.045027
     16          1           0       -3.346573   -0.568081   -2.617366
     17          7           0       -1.354324   -2.016001   -1.242153
     18          6           0       -0.673771   -1.352184   -2.214856
     19          6           0       -0.654970   -2.803167   -0.381943
     20          6           0        0.680244   -1.417447   -2.327779
     21          1           0       -1.269200   -0.734129   -2.875451
     22          6           0        0.700830   -2.906445   -0.421819
     23          1           0       -1.239654   -3.290207    0.390980
     24          6           0        1.440047   -2.112662   -1.339638
     25          1           0        1.166831   -0.860472   -3.117126
     26          1           0        1.190096   -3.492742    0.342882
     27          7           0        2.763619   -2.025159   -1.279791
     28          6           0        3.504833   -2.491596   -0.098248
     29          1           0        3.378107   -3.569322    0.036549
     30          1           0        3.125721   -1.946237    0.778487
     31          6           0        3.495861   -0.959879   -1.980930
     32          1           0        3.735195   -1.279360   -3.002724
     33          1           0        2.874419   -0.060507   -1.998751
     34          7           0       -1.299822   -0.266583    0.885844
     35         16           0       -1.335031   -1.092759    2.294403
     36          8           0       -2.558597   -1.899665    2.315031
     37          8           0       -0.056773   -1.786801    2.465753
     38          6           0       -0.558323    2.663037   -0.039788
     39          6           0       -0.085222    2.133982   -1.251004
     40          6           0       -0.859123    2.205726   -2.408096
     41          6           0       -2.122027    2.797662   -2.389714
     42          6           0       -2.604487    3.322959   -1.193878
     43          6           0       -1.825042    3.255230   -0.038763
     44          1           0        0.867329    1.614792   -1.251069
     45          1           0       -0.464846    1.800759   -3.338092
     46          1           0       -2.718474    2.855783   -3.296063
     47          1           0       -3.584707    3.790469   -1.158672
     48          1           0       -2.210787    3.677505    0.887115
     49          8           0        0.733335    1.539448    1.835953
     50          1           0       -0.329615   -0.033122    0.562045
     51          6           0        1.899358    0.812104    1.223882
     52          8           0        1.524800    0.198345    0.124527
     53          8           0        2.259382   -0.062168    2.278016
     54          1           0        1.563507   -0.743871    2.287093
     55          6           0        3.088753    1.801117    1.131616
     56          1           0        3.007736    2.517630    1.958632
     57          1           0        3.992015    1.214786    1.340356
     58          6           0        0.267263    2.723043    1.250257
     59          1           0       -0.377355    3.186420    2.009091
     60          1           0        1.097660    3.427612    1.091158
     61          6           0       -1.425451    0.143725    3.567972
     62          1           0       -0.539846    0.772907    3.441788
     63          1           0       -2.346131    0.712275    3.425758
     64          1           0       -1.429403   -0.372261    4.529544
     65          6           0        3.277269    2.538717   -0.191282
     66          1           0        3.440923    1.809783   -0.993968
     67          1           0        2.372295    3.085787   -0.475743
     68          6           0        4.450957    3.514616   -0.122386
     69          1           0        4.612102    4.028789   -1.074864
     70          1           0        4.273217    4.277031    0.644240
     71          1           0        5.378284    2.994888    0.144132
     72          6           0        4.940800   -2.095907   -0.421583
     73          1           0        5.556051   -2.023801    0.476993
     74          1           0        5.393204   -2.829681   -1.097979
     75          6           0        4.748791   -0.751267   -1.125648
     76          1           0        4.531079    0.014993   -0.376911
     77          1           0        5.610297   -0.436109   -1.718045
 ---------------------------------------------------------------------

 SCF Done:  E(RM062X) =  -1991.35780357     A.U. after   14 cycles

 The electronic state is 1-A.
 Alpha  occ. eigenvalues --  -90.14345 -19.61932 -19.61892 -19.58572 -19.56664
 Alpha  occ. eigenvalues --  -19.51036 -14.85232 -14.80400 -14.76129 -10.63407
 Alpha  occ. eigenvalues --  -10.62787 -10.62252 -10.62131 -10.60832 -10.59502
 Alpha  occ. eigenvalues --  -10.58308 -10.57993 -10.57961 -10.57187 -10.56888
 Alpha  occ. eigenvalues --  -10.56752 -10.55721 -10.55684 -10.55062 -10.54879
 Alpha  occ. eigenvalues --  -10.54870 -10.54758 -10.54706 -10.54607 -10.54420
 Alpha  occ. eigenvalues --  -10.54413 -10.54344 -10.53023 -10.51385 -10.51348
 Alpha  occ. eigenvalues --  -10.49580  -8.45321  -6.37541  -6.37513  -6.37356
 Alpha  occ. eigenvalues --   -1.22160  -1.13614  -1.13340  -1.10412  -1.09305
 Alpha  occ. eigenvalues --   -1.05789  -1.01937  -0.99227  -0.95807  -0.95003
 Alpha  occ. eigenvalues --   -0.93537  -0.90323  -0.88762  -0.86039  -0.85659
 Alpha  occ. eigenvalues --   -0.84828  -0.84752  -0.84160  -0.83064  -0.82796
 Alpha  occ. eigenvalues --   -0.76692  -0.76170  -0.75813  -0.74284  -0.72904
 Alpha  occ. eigenvalues --   -0.71717  -0.68320  -0.68187  -0.67931  -0.67297
 Alpha  occ. eigenvalues --   -0.66698  -0.65276  -0.64853  -0.63533  -0.60521
 Alpha  occ. eigenvalues --   -0.60398  -0.59738  -0.59239  -0.57786  -0.57651
 Alpha  occ. eigenvalues --   -0.57235  -0.56462  -0.55811  -0.55151  -0.54226
 Alpha  occ. eigenvalues --   -0.53592  -0.52716  -0.52535  -0.52499  -0.51915
 Alpha  occ. eigenvalues --   -0.51566  -0.50970  -0.50596  -0.49910  -0.49473
 Alpha  occ. eigenvalues --   -0.49152  -0.48894  -0.48214  -0.48127  -0.47932
 Alpha  occ. eigenvalues --   -0.47727  -0.47503  -0.46969  -0.46377  -0.46088
 Alpha  occ. eigenvalues --   -0.44937  -0.44731  -0.44204  -0.43836  -0.43275
 Alpha  occ. eigenvalues --   -0.42568  -0.42174  -0.41332  -0.41246  -0.41040
 Alpha  occ. eigenvalues --   -0.40890  -0.40532  -0.39990  -0.39765  -0.39246
 Alpha  occ. eigenvalues --   -0.39227  -0.39097  -0.38412  -0.38066  -0.37670
 Alpha  occ. eigenvalues --   -0.37363  -0.36734  -0.36508  -0.35839  -0.34934
 Alpha  occ. eigenvalues --   -0.34406  -0.34045  -0.31695  -0.31192  -0.29785
 Alpha  occ. eigenvalues --   -0.28863  -0.28601  -0.27694  -0.24605  -0.24246
 Alpha virt. eigenvalues --   -0.01511   0.00381   0.03518   0.03729   0.10120
 Alpha virt. eigenvalues --    0.10880   0.11587   0.12286   0.13144   0.13427
 Alpha virt. eigenvalues --    0.14222   0.14450   0.14749   0.15244   0.15594

 Mulliken charges:
               1
     1  C   -0.306308
     2  C   -0.307301
     3  C   -0.309240
     4  C   -0.060035
     5  C    0.055722
     6  C   -0.310764
     7  H    0.174379
     8  H    0.163022
     9  H    0.165879
    10  H    0.150684
    11  H    0.163936
    12  H    0.208715
    13  H    0.173899
    14  H    0.194335
    15  H    0.163406
    16  H    0.154805
    17  N   -0.431766
    18  C    0.068103
    19  C    0.065288
    20  C   -0.201712
    21  H    0.205984
    22  C   -0.210129
    23  H    0.244357
    24  C    0.446467
    25  H    0.192356
    26  H    0.211311
    27  N   -0.524970
    28  C   -0.169656
    29  H    0.169473
    30  H    0.227134
    31  C   -0.153850
    32  H    0.164215
    33  H    0.207154
    34  N   -0.811819
    35  S    1.250839
    36  O   -0.609509
    37  O   -0.603504
    38  C    0.079794
    39  C   -0.187437
    40  C   -0.190384
    41  C   -0.172021
    42  C   -0.164012
    43  C   -0.211280
    44  H    0.216533
    45  H    0.140280
    46  H    0.154946
    47  H    0.158541
    48  H    0.152332
    49  O   -0.555174
    50  H    0.446307
    51  C    0.721344
    52  O   -0.719374
    53  O   -0.716902
    54  H    0.441964
    55  C   -0.337994
    56  H    0.147993
    57  H    0.151078
    58  C   -0.088427
    59  H    0.138256
    60  H    0.148259
    61  C   -0.663760
    62  H    0.276085
    63  H    0.196762
    64  H    0.218105
    65  C   -0.290589
    66  H    0.133640
    67  H    0.145531
    68  C   -0.473318
    69  H    0.148589
    70  H    0.153253
    71  H    0.146468
    72  C   -0.332291
    73  H    0.186604
    74  H    0.162515
    75  C   -0.342468
    76  H    0.198869
    77  H    0.170483
 Sum of Mulliken charges =  -0.00000

 Dipole moment (field-independent basis, Debye):
    X=             -2.8024    Y=             -2.0837    Z=             -6.2373  Tot=              7.1484
 Quadrupole moment (field-independent basis, Debye-Ang):
   XX=           -206.3484   YY=           -222.0906   ZZ=           -220.1874
   XY=            -12.6472   XZ=             -4.9280   YZ=             10.1744

 Normal termination of Gaussian 16 at Thu Feb  7 13:22:38 2019.
