 Gaussian 16, Revision A.03,
 Gaussian 16:  ES64L-G16RevA.03 25-Dec-2016

 ------------------------------------------
 #p M062X/6-31G* em=gd3 force int=ultrafine
 ------------------------------------------

 -----
 Title
 -----
 Symbolic Z-matrix:
 Charge =  0 Multiplicity = 1

                         Standard orientation:
 ---------------------------------------------------------------------
 Center     Atomic      Atomic             Coordinates (Angstroms)
 Number     Number       Type             X           Y           Z
 ---------------------------------------------------------------------
      1          6           0       -4.851164    0.365054   -0.495863
      2          6           0       -4.981884   -0.907044   -1.339018
      3          6           0       -3.626803   -1.312693   -1.932387
      4          6           0       -2.636871   -1.527720   -0.794226
      5          6           0       -2.462601   -0.240414    0.054660
      6          6           0       -3.820880    0.190804    0.623256
      7          1           0       -3.713196   -2.217885   -2.543680
      8          1           0       -5.360081   -1.724818   -0.711795
      9          1           0       -5.705746   -0.760945   -2.147186
     10          1           0       -4.534257    1.192760   -1.146247
     11          1           0       -5.825064    0.641082   -0.077896
     12          1           0       -2.994280   -2.327399   -0.137771
     13          1           0       -2.164071    0.541606   -0.661055
     14          1           0       -4.163095   -0.552843    1.352676
     15          1           0       -3.670905    1.138848    1.154426
     16          1           0       -3.284565   -0.496824   -2.584012
     17          7           0       -1.285143   -1.947804   -1.238784
     18          6           0       -0.630146   -1.261291   -2.204877
     19          6           0       -0.564736   -2.732091   -0.401538
     20          6           0        0.725522   -1.324093   -2.355500
     21          1           0       -1.239700   -0.630475   -2.838852
     22          6           0        0.794250   -2.843537   -0.487450
     23          1           0       -1.127640   -3.235695    0.376857
     24          6           0        1.510352   -2.059604   -1.423770
     25          1           0        1.188651   -0.751104   -3.148240
     26          1           0        1.297652   -3.445571    0.255935
     27          7           0        2.849706   -1.997583   -1.412365
     28          6           0        3.605564   -2.503820   -0.258065
     29          1           0        3.510665   -3.589879   -0.176332
     30          1           0        3.214366   -2.038762    0.657748
     31          6           0        3.584304   -0.921473   -2.099472
     32          1           0        3.855027   -1.237889   -3.113694
     33          1           0        2.965440   -0.021737   -2.146604
     34          7           0       -1.354845   -0.341561    0.968899
     35         16           0       -1.382188   -1.228139    2.280558
     36          8           0       -2.505735   -2.187144    2.316169
     37          8           0       -0.029188   -1.812745    2.476540
     38          6           0       -0.772901    2.781461   -0.071909
     39          6           0       -0.183814    2.136887   -1.167657
     40          6           0       -0.824250    2.151987   -2.405117
     41          6           0       -2.067491    2.768810   -2.555176
     42          6           0       -2.664622    3.387413   -1.459697
     43          6           0       -2.012392    3.394974   -0.230200
     44          1           0        0.749438    1.592067   -1.033708
     45          1           0       -0.355085    1.671959   -3.261772
     46          1           0       -2.570032    2.766371   -3.517579
     47          1           0       -3.637443    3.859521   -1.554653
     48          1           0       -2.471910    3.867583    0.634390
     49          8           0        0.290114    1.501268    1.679114
     50          1           0       -0.345172    0.798589    1.272310
     51          6           0        2.410646    0.565496    1.168973
     52          8           0        2.093117    0.156855    0.067247
     53          8           0        2.267849   -0.146350    2.284666
     54          1           0        1.532707   -0.802624    2.176557
     55          6           0        3.135912    1.873509    1.391052
     56          1           0        2.612336    2.415672    2.186287
     57          1           0        4.127270    1.624607    1.791924
     58          6           0       -0.123608    2.768527    1.293651
     59          1           0       -0.825857    3.197315    2.026118
     60          1           0        0.767795    3.413282    1.294063
     61          6           0       -1.551095   -0.086226    3.652724
     62          1           0       -0.738681    0.635630    3.539102
     63          1           0       -2.519767    0.412197    3.582002
     64          1           0       -1.458919   -0.634245    4.591141
     65          6           0        3.277983    2.724691    0.130248
     66          1           0        3.663878    2.102367   -0.685468
     67          1           0        2.294266    3.073043   -0.206233
     68          6           0        4.200096    3.921186    0.356026
     69          1           0        4.344198    4.496638   -0.563027
     70          1           0        3.793169    4.598680    1.114311
     71          1           0        5.185143    3.590968    0.703186
     72          6           0        5.033128   -2.048276   -0.543276
     73          1           0        5.631484   -1.984218    0.367758
     74          1           0        5.520762   -2.746636   -1.231064
     75          6           0        4.816931   -0.692739   -1.218965
     76          1           0        4.572563    0.057552   -0.461896
     77          1           0        5.679824   -0.343670   -1.789661
 ---------------------------------------------------------------------

 SCF Done:  E(RM062X) =  -1991.37727411     A.U. after   15 cycles

 The electronic state is 1-A.
 Alpha  occ. eigenvalues --  -90.10282 -19.63650 -19.60137 -19.58347 -19.58262
 Alpha  occ. eigenvalues --  -19.58082 -14.84809 -14.80400 -14.69298 -10.65980
 Alpha  occ. eigenvalues --  -10.63221 -10.62457 -10.61700 -10.59292 -10.59032
 Alpha  occ. eigenvalues --  -10.58840 -10.57832 -10.57115 -10.56778 -10.56755
 Alpha  occ. eigenvalues --  -10.55903 -10.55669 -10.55647 -10.55117 -10.55045
 Alpha  occ. eigenvalues --  -10.54949 -10.54633 -10.54586 -10.54488 -10.53986
 Alpha  occ. eigenvalues --  -10.53708 -10.53646 -10.53628 -10.53221 -10.53009
 Alpha  occ. eigenvalues --  -10.52641  -8.41227  -6.33464  -6.33375  -6.33298
 Alpha  occ. eigenvalues --   -1.19273  -1.17719  -1.12940  -1.10086  -1.09705
 Alpha  occ. eigenvalues --   -1.09033  -1.06033  -0.97709  -0.95389  -0.94769
 Alpha  occ. eigenvalues --   -0.92248  -0.89825  -0.88583  -0.88469  -0.85066
 Alpha  occ. eigenvalues --   -0.84779  -0.83775  -0.83585  -0.83305  -0.79988
 Alpha  occ. eigenvalues --   -0.79513  -0.76311  -0.75607  -0.74507  -0.70994
 Alpha  occ. eigenvalues --   -0.70384  -0.69450  -0.68647  -0.68354  -0.68125
 Alpha  occ. eigenvalues --   -0.66017  -0.64803  -0.63924  -0.63548  -0.61656
 Alpha  occ. eigenvalues --   -0.60314  -0.59417  -0.59125  -0.58356  -0.56216
 Alpha  occ. eigenvalues --   -0.55874  -0.55332  -0.55214  -0.54663  -0.53931
 Alpha  occ. eigenvalues --   -0.53505  -0.53061  -0.52653  -0.51816  -0.51620
 Alpha  occ. eigenvalues --   -0.51087  -0.50943  -0.50649  -0.49963  -0.49880
 Alpha  occ. eigenvalues --   -0.49792  -0.49521  -0.48762  -0.48317  -0.48060
 Alpha  occ. eigenvalues --   -0.47535  -0.47282  -0.47104  -0.46997  -0.45795
 Alpha  occ. eigenvalues --   -0.45477  -0.45156  -0.44035  -0.43803  -0.43511
 Alpha  occ. eigenvalues --   -0.43220  -0.42843  -0.42123  -0.41857  -0.41761
 Alpha  occ. eigenvalues --   -0.41276  -0.40926  -0.40507  -0.39895  -0.39724
 Alpha  occ. eigenvalues --   -0.39461  -0.39403  -0.39221  -0.38426  -0.38126
 Alpha  occ. eigenvalues --   -0.37487  -0.36332  -0.35829  -0.35373  -0.35071
 Alpha  occ. eigenvalues --   -0.34163  -0.32930  -0.31919  -0.31728  -0.30862
 Alpha  occ. eigenvalues --   -0.30008  -0.28597  -0.28333  -0.27230  -0.25426
 Alpha virt. eigenvalues --   -0.01097   0.00694   0.03093   0.03670   0.08879
 Alpha virt. eigenvalues --    0.10132   0.10958   0.11749   0.12974   0.13446
 Alpha virt. eigenvalues --    0.13734   0.14332   0.15047   0.15402   0.15862

 Mulliken charges:
               1
     1  C   -0.303729
     2  C   -0.304873
     3  C   -0.309454
     4  C   -0.069034
     5  C    0.071788
     6  C   -0.305055
     7  H    0.167367
     8  H    0.161958
     9  H    0.159519
    10  H    0.144363
    11  H    0.157583
    12  H    0.207497
    13  H    0.140717
    14  H    0.184442
    15  H    0.149886
    16  H    0.149799
    17  N   -0.424913
    18  C    0.096459
    19  C    0.097995
    20  C   -0.226509
    21  H    0.204367
    22  C   -0.228489
    23  H    0.256036
    24  C    0.425885
    25  H    0.187443
    26  H    0.207973
    27  N   -0.525082
    28  C   -0.159383
    29  H    0.177848
    30  H    0.197985
    31  C   -0.145027
    32  H    0.169368
    33  H    0.193629
    34  N   -0.783131
    35  S    1.243476
    36  O   -0.632287
    37  O   -0.664926
    38  C    0.052718
    39  C   -0.178561
    40  C   -0.188740
    41  C   -0.169907
    42  C   -0.160367
    43  C   -0.199598
    44  H    0.204064
    45  H    0.140089
    46  H    0.157356
    47  H    0.162571
    48  H    0.159227
    49  O   -0.718581
    50  H    0.487951
    51  C    0.675127
    52  O   -0.522207
    53  O   -0.646670
    54  H    0.479470
    55  C   -0.376497
    56  H    0.199329
    57  H    0.169103
    58  C   -0.061078
    59  H    0.123742
    60  H    0.137536
    61  C   -0.668052
    62  H    0.236790
    63  H    0.183959
    64  H    0.205083
    65  C   -0.292684
    66  H    0.148266
    67  H    0.163315
    68  C   -0.480696
    69  H    0.160434
    70  H    0.159250
    71  H    0.152481
    72  C   -0.335013
    73  H    0.183900
    74  H    0.169219
    75  C   -0.335155
    76  H    0.178884
    77  H    0.172453
 Sum of Mulliken charges =  -0.00000

 Dipole moment (field-independent basis, Debye):
    X=              1.7902    Y=              0.3334    Z=             -6.7905  Tot=              7.0304
 Quadrupole moment (field-independent basis, Debye-Ang):
   XX=           -201.0063   YY=           -222.7981   ZZ=           -222.9122
   XY=            -11.6311   XZ=              1.7003   YZ=             13.4630

 Normal termination of Gaussian 16 at Thu Feb  7 20:50:29 2019.
