 Gaussian 16, Revision A.03,
 Gaussian 16:  ES64L-G16RevA.03 25-Dec-2016

 ------------------------------------------
 #p M062X/6-31G* em=gd3 force int=ultrafine
 ------------------------------------------

 -----
 Title
 -----
 Symbolic Z-matrix:
 Charge =  0 Multiplicity = 1

                         Standard orientation:
 ---------------------------------------------------------------------
 Center     Atomic      Atomic             Coordinates (Angstroms)
 Number     Number       Type             X           Y           Z
 ---------------------------------------------------------------------
      1          6           0       -4.868627    0.064952   -0.424661
      2          6           0       -4.905043   -1.219263   -1.258717
      3          6           0       -3.523615   -1.525689   -1.849607
      4          6           0       -2.517944   -1.647179   -0.709375
      5          6           0       -2.424472   -0.323651    0.102127
      6          6           0       -3.812463   -0.011488    0.682051
      7          1           0       -3.541913   -2.446205   -2.444366
      8          1           0       -5.221164   -2.059795   -0.627011
      9          1           0       -5.638843   -1.132897   -2.066833
     10          1           0       -4.629029    0.911007   -1.084105
     11          1           0       -5.857281    0.261828    0.003565
     12          1           0       -2.829039   -2.449430   -0.035019
     13          1           0       -2.213559    0.457984   -0.642780
     14          1           0       -4.079791   -0.783638    1.414703
     15          1           0       -3.745623    0.946390    1.212045
     16          1           0       -3.246768   -0.697928   -2.517103
     17          7           0       -1.151606   -2.008986   -1.152636
     18          6           0       -0.541483   -1.321972   -2.145449
     19          6           0       -0.395326   -2.762890   -0.320330
     20          6           0        0.811915   -1.348106   -2.323819
     21          1           0       -1.186196   -0.726383   -2.778847
     22          6           0        0.963708   -2.834653   -0.432650
     23          1           0       -0.929588   -3.263608    0.479941
     24          6           0        1.634766   -2.044479   -1.395951
     25          1           0        1.241977   -0.782237   -3.139679
     26          1           0        1.501830   -3.411888    0.306081
     27          7           0        2.970929   -1.945838   -1.414573
     28          6           0        3.770955   -2.444518   -0.289132
     29          1           0        3.718120   -3.535646   -0.229375
     30          1           0        3.381051   -2.015559    0.644689
     31          6           0        3.661885   -0.863984   -2.132230
     32          1           0        3.919803   -1.188548   -3.147829
     33          1           0        3.017189    0.017556   -2.179450
     34          7           0       -1.300496   -0.279616    1.015150
     35         16           0       -1.261293   -1.223924    2.280248
     36          8           0       -2.250356   -2.324289    2.246937
     37          8           0        0.138301   -1.670330    2.520425
     38          6           0       -1.142266    2.855853   -0.173130
     39          6           0       -0.408726    2.190783   -1.161247
     40          6           0       -0.929660    2.065573   -2.447396
     41          6           0       -2.195912    2.564073   -2.754179
     42          6           0       -2.938463    3.204639   -1.764293
     43          6           0       -2.408346    3.351345   -0.484566
     44          1           0        0.545110    1.734664   -0.902044
     45          1           0       -0.343985    1.568268   -3.217348
     46          1           0       -2.602119    2.456078   -3.755566
     47          1           0       -3.930406    3.587859   -1.985506
     48          1           0       -2.989568    3.846681    0.290358
     49          8           0        0.215198    1.933611    1.616403
     50          1           0       -0.279821    1.102803    1.354601
     51          6           0        2.436935    0.657497    1.232065
     52          8           0        2.128663    0.215206    0.138432
     53          8           0        2.195642    0.033367    2.372622
     54          1           0        1.503124   -0.674643    2.253716
     55          6           0        3.192307    1.951215    1.426653
     56          1           0        2.719475    2.474112    2.263001
     57          1           0        4.215789    1.703840    1.743342
     58          6           0       -0.579043    3.015496    1.224107
     59          1           0       -1.412119    3.190861    1.925361
     60          1           0        0.058316    3.910615    1.261271
     61          6           0       -1.645441   -0.204514    3.701012
     62          1           0       -0.948334    0.636959    3.688664
     63          1           0       -2.674693    0.145676    3.600763
     64          1           0       -1.524790   -0.799745    4.607132
     65          6           0        3.201345    2.814764    0.172155
     66          1           0        3.625742    2.244646   -0.663244
     67          1           0        2.163501    3.032103   -0.104099
     68          6           0        3.974698    4.114918    0.369013
     69          1           0        3.978908    4.717534   -0.543848
     70          1           0        3.528286    4.717805    1.166744
     71          1           0        5.016046    3.917843    0.646388
     72          6           0        5.176197   -1.934144   -0.595971
     73          1           0        5.780971   -1.839622    0.308125
     74          1           0        5.685289   -2.619467   -1.281454
     75          6           0        4.904603   -0.592109   -1.280058
     76          1           0        4.652715    0.161102   -0.527905
     77          1           0        5.745786   -0.228436   -1.873715
 ---------------------------------------------------------------------

 SCF Done:  E(RM062X) =  -1991.38948160     A.U. after   15 cycles

 The electronic state is 1-A.
 Alpha  occ. eigenvalues --  -90.10369 -19.63374 -19.60090 -19.59274 -19.58592
 Alpha  occ. eigenvalues --  -19.58356 -14.84808 -14.80512 -14.69402 -10.65458
 Alpha  occ. eigenvalues --  -10.63235 -10.62397 -10.61512 -10.59144 -10.59085
 Alpha  occ. eigenvalues --  -10.59039 -10.57821 -10.57423 -10.56831 -10.56652
 Alpha  occ. eigenvalues --  -10.56052 -10.55758 -10.55509 -10.54968 -10.54916
 Alpha  occ. eigenvalues --  -10.54861 -10.54583 -10.54544 -10.54493 -10.53762
 Alpha  occ. eigenvalues --  -10.53734 -10.53558 -10.53152 -10.53031 -10.52625
 Alpha  occ. eigenvalues --  -10.52569  -8.41334  -6.33572  -6.33479  -6.33399
 Alpha  occ. eigenvalues --   -1.19121  -1.17905  -1.12941  -1.10299  -1.09849
 Alpha  occ. eigenvalues --   -1.09148  -1.06171  -0.97542  -0.95256  -0.94808
 Alpha  occ. eigenvalues --   -0.92187  -0.89855  -0.88587  -0.88047  -0.85015
 Alpha  occ. eigenvalues --   -0.84952  -0.83648  -0.83504  -0.83301  -0.80195
 Alpha  occ. eigenvalues --   -0.79129  -0.76356  -0.75660  -0.74677  -0.70941
 Alpha  occ. eigenvalues --   -0.70191  -0.69076  -0.68723  -0.68362  -0.68002
 Alpha  occ. eigenvalues --   -0.65785  -0.64724  -0.63946  -0.63426  -0.61630
 Alpha  occ. eigenvalues --   -0.60271  -0.59396  -0.58973  -0.58358  -0.56170
 Alpha  occ. eigenvalues --   -0.55452  -0.55161  -0.55061  -0.54071  -0.53677
 Alpha  occ. eigenvalues --   -0.53438  -0.53077  -0.52386  -0.51969  -0.51723
 Alpha  occ. eigenvalues --   -0.51146  -0.50995  -0.50610  -0.50178  -0.49829
 Alpha  occ. eigenvalues --   -0.49604  -0.49475  -0.48837  -0.48354  -0.47999
 Alpha  occ. eigenvalues --   -0.47776  -0.47170  -0.46977  -0.46939  -0.45938
 Alpha  occ. eigenvalues --   -0.45834  -0.45244  -0.43954  -0.43649  -0.43420
 Alpha  occ. eigenvalues --   -0.42760  -0.42461  -0.42248  -0.41921  -0.41898
 Alpha  occ. eigenvalues --   -0.41157  -0.40845  -0.40572  -0.39917  -0.39524
 Alpha  occ. eigenvalues --   -0.39366  -0.39198  -0.38757  -0.38379  -0.37845
 Alpha  occ. eigenvalues --   -0.37332  -0.36236  -0.35886  -0.35364  -0.35112
 Alpha  occ. eigenvalues --   -0.34399  -0.33128  -0.32091  -0.31712  -0.31502
 Alpha  occ. eigenvalues --   -0.29847  -0.28888  -0.28318  -0.27487  -0.25416
 Alpha virt. eigenvalues --   -0.01023   0.00648   0.03308   0.03798   0.09085
 Alpha virt. eigenvalues --    0.10145   0.10922   0.11788   0.12998   0.13469
 Alpha virt. eigenvalues --    0.13852   0.14235   0.15131   0.15501   0.15754

 Mulliken charges:
               1
     1  C   -0.303940
     2  C   -0.304187
     3  C   -0.309723
     4  C   -0.073382
     5  C    0.062328
     6  C   -0.305203
     7  H    0.165915
     8  H    0.160914
     9  H    0.159145
    10  H    0.146414
    11  H    0.156658
    12  H    0.212950
    13  H    0.141501
    14  H    0.179558
    15  H    0.149215
    16  H    0.150859
    17  N   -0.424469
    18  C    0.100186
    19  C    0.084022
    20  C   -0.227873
    21  H    0.205200
    22  C   -0.227094
    23  H    0.264262
    24  C    0.428371
    25  H    0.188225
    26  H    0.206917
    27  N   -0.529031
    28  C   -0.157460
    29  H    0.178391
    30  H    0.199267
    31  C   -0.147156
    32  H    0.169542
    33  H    0.196049
    34  N   -0.755260
    35  S    1.249428
    36  O   -0.646864
    37  O   -0.670483
    38  C    0.048769
    39  C   -0.177166
    40  C   -0.187043
    41  C   -0.169963
    42  C   -0.162184
    43  C   -0.197779
    44  H    0.202840
    45  H    0.139345
    46  H    0.156402
    47  H    0.161812
    48  H    0.156635
    49  O   -0.711619
    50  H    0.481023
    51  C    0.646378
    52  O   -0.523293
    53  O   -0.644992
    54  H    0.485728
    55  C   -0.367454
    56  H    0.200393
    57  H    0.164004
    58  C   -0.067723
    59  H    0.128501
    60  H    0.158733
    61  C   -0.656340
    62  H    0.218962
    63  H    0.188102
    64  H    0.207974
    65  C   -0.287094
    66  H    0.143429
    67  H    0.166736
    68  C   -0.480388
    69  H    0.158419
    70  H    0.158563
    71  H    0.150057
    72  C   -0.337360
    73  H    0.184077
    74  H    0.170050
    75  C   -0.335685
    76  H    0.182668
    77  H    0.173289
 Sum of Mulliken charges =  -0.00000

 Dipole moment (field-independent basis, Debye):
    X=              1.5550    Y=             -0.3998    Z=             -6.5103  Tot=              6.7054
 Quadrupole moment (field-independent basis, Debye-Ang):
   XX=           -198.0439   YY=           -223.2830   ZZ=           -221.8082
   XY=            -12.0469   XZ=             -1.2582   YZ=             12.3591

 Normal termination of Gaussian 16 at Fri Feb  8 00:40:13 2019.
