 Gaussian 16, Revision A.03,
 Gaussian 16:  ES64L-G16RevA.03 25-Dec-2016

 ------------------------------------------
 #p M062X/6-31G* em=gd3 force int=ultrafine
 ------------------------------------------

 -----
 Title
 -----
 Symbolic Z-matrix:
 Charge =  0 Multiplicity = 1

                         Standard orientation:
 ---------------------------------------------------------------------
 Center     Atomic      Atomic             Coordinates (Angstroms)
 Number     Number       Type             X           Y           Z
 ---------------------------------------------------------------------
      1          6           0       -4.848357    0.542922   -0.523154
      2          6           0       -5.025262   -0.727248   -1.360239
      3          6           0       -3.685403   -1.181813   -1.951741
      4          6           0       -2.698011   -1.433504   -0.816517
      5          6           0       -2.492105   -0.148573    0.021773
      6          6           0       -3.826251    0.335953    0.597571
      7          1           0       -3.802029   -2.086247   -2.558195
      8          1           0       -5.434944   -1.528702   -0.731552
      9          1           0       -5.742809   -0.556416   -2.168767
     10          1           0       -4.502630    1.357451   -1.174392
     11          1           0       -5.809322    0.853784   -0.100958
     12          1           0       -3.091058   -2.218203   -0.161931
     13          1           0       -2.132319    0.623892   -0.670495
     14          1           0       -4.198858   -0.395492    1.323025
     15          1           0       -3.641748    1.277364    1.127859
     16          1           0       -3.313427   -0.382480   -2.606702
     17          7           0       -1.368645   -1.905212   -1.260199
     18          6           0       -0.682568   -1.234555   -2.223388
     19          6           0       -0.675531   -2.723725   -0.425099
     20          6           0        0.668178   -1.330960   -2.357913
     21          1           0       -1.269651   -0.590578   -2.865285
     22          6           0        0.676862   -2.860251   -0.487548
     23          1           0       -1.262070   -3.224804    0.337143
     24          6           0        1.427554   -2.077867   -1.408018
     25          1           0        1.156206   -0.769211   -3.143296
     26          1           0        1.159420   -3.483212    0.252174
     27          7           0        2.755278   -2.054797   -1.384879
     28          6           0        3.494375   -2.585821   -0.228722
     29          1           0        3.346612   -3.665792   -0.138150
     30          1           0        3.130477   -2.069915    0.670972
     31          6           0        3.528882   -1.007469   -2.074272
     32          1           0        3.781139   -1.338292   -3.089558
     33          1           0        2.941383   -0.087239   -2.101253
     34          7           0       -1.409723   -0.297347    0.977637
     35         16           0       -1.440257   -1.198084    2.335278
     36          8           0       -2.667384   -1.996971    2.299612
     37          8           0       -0.163645   -1.900290    2.470601
     38          6           0       -0.539531    2.689641   -0.060198
     39          6           0       -0.033950    2.072143   -1.211864
     40          6           0       -0.733033    2.158495   -2.415286
     41          6           0       -1.952125    2.832601   -2.487517
     42          6           0       -2.467945    3.433866   -1.340806
     43          6           0       -1.761243    3.363737   -0.140539
     44          1           0        0.883195    1.488229   -1.122684
     45          1           0       -0.318555    1.696238   -3.309168
     46          1           0       -2.492003    2.895733   -3.428236
     47          1           0       -3.417801    3.959822   -1.381381
     48          1           0       -2.168877    3.837246    0.750475
     49          8           0        0.645952    1.350294    1.641061
     50          1           0       -0.543575    0.273774    0.910148
     51          6           0        2.052307    0.726762    1.196726
     52          8           0        1.940912    0.178614    0.041733
     53          8           0        2.238448   -0.157878    2.276707
     54          1           0        1.561625   -0.850081    2.165115
     55          6           0        3.107484    1.835226    1.361889
     56          1           0        2.843318    2.487772    2.203502
     57          1           0        4.035497    1.326897    1.654910
     58          6           0        0.213770    2.625901    1.263227
     59          1           0       -0.465806    2.991433    2.049503
     60          1           0        1.051294    3.338203    1.236318
     61          6           0       -1.496897   -0.015764    3.663563
     62          1           0       -0.617513    0.621690    3.527334
     63          1           0       -2.424836    0.552368    3.582931
     64          1           0       -1.449973   -0.562940    4.606346
     65          6           0        3.366645    2.643629    0.092920
     66          1           0        3.713381    1.962368   -0.692404
     67          1           0        2.435616    3.075715   -0.292800
     68          6           0        4.388250    3.754944    0.321318
     69          1           0        4.593612    4.313631   -0.597062
     70          1           0        4.028875    4.466701    1.073089
     71          1           0        5.336583    3.345376    0.686730
     72          6           0        4.937494   -2.201625   -0.533392
     73          1           0        5.548367   -2.170189    0.370679
     74          1           0        5.383739   -2.918558   -1.231826
     75          6           0        4.766186   -0.831919   -1.191545
     76          1           0        4.522000   -0.093359   -0.422759
     77          1           0        5.640294   -0.501634   -1.756855
 ---------------------------------------------------------------------

 SCF Done:  E(RM062X) =  -1991.35548972     A.U. after   15 cycles

 The electronic state is 1-A.
 Alpha  occ. eigenvalues --  -90.14674 -19.62338 -19.62018 -19.58512 -19.57194
 Alpha  occ. eigenvalues --  -19.50870 -14.85169 -14.80058 -14.76319 -10.63160
 Alpha  occ. eigenvalues --  -10.62602 -10.62352 -10.62118 -10.61060 -10.59822
 Alpha  occ. eigenvalues --  -10.57792 -10.57755 -10.57686 -10.57028 -10.56970
 Alpha  occ. eigenvalues --  -10.56862 -10.56385 -10.55854 -10.55120 -10.55065
 Alpha  occ. eigenvalues --  -10.55042 -10.54887 -10.54691 -10.54690 -10.54676
 Alpha  occ. eigenvalues --  -10.54441 -10.54070 -10.53117 -10.51109 -10.51002
 Alpha  occ. eigenvalues --  -10.49635  -8.45649  -6.37876  -6.37824  -6.37701
 Alpha  occ. eigenvalues --   -1.22474  -1.13438  -1.12815  -1.10674  -1.08891
 Alpha  occ. eigenvalues --   -1.06025  -1.02337  -1.00319  -0.95810  -0.95210
 Alpha  occ. eigenvalues --   -0.93468  -0.90109  -0.88571  -0.86504  -0.85401
 Alpha  occ. eigenvalues --   -0.84893  -0.84844  -0.83739  -0.83316  -0.83028
 Alpha  occ. eigenvalues --   -0.76562  -0.76040  -0.75555  -0.74176  -0.73223
 Alpha  occ. eigenvalues --   -0.71740  -0.68230  -0.68123  -0.67750  -0.67478
 Alpha  occ. eigenvalues --   -0.66410  -0.65478  -0.64881  -0.63328  -0.60523
 Alpha  occ. eigenvalues --   -0.60374  -0.59944  -0.59393  -0.57952  -0.57683
 Alpha  occ. eigenvalues --   -0.57152  -0.56372  -0.55631  -0.55051  -0.54379
 Alpha  occ. eigenvalues --   -0.53547  -0.53041  -0.52646  -0.52433  -0.52165
 Alpha  occ. eigenvalues --   -0.51663  -0.50828  -0.50126  -0.49932  -0.49381
 Alpha  occ. eigenvalues --   -0.49243  -0.48907  -0.48514  -0.48202  -0.48034
 Alpha  occ. eigenvalues --   -0.47700  -0.47649  -0.47152  -0.46224  -0.45845
 Alpha  occ. eigenvalues --   -0.45373  -0.45180  -0.44389  -0.44087  -0.43184
 Alpha  occ. eigenvalues --   -0.42463  -0.42335  -0.41208  -0.40888  -0.40754
 Alpha  occ. eigenvalues --   -0.40649  -0.40403  -0.40157  -0.39845  -0.39433
 Alpha  occ. eigenvalues --   -0.39092  -0.38939  -0.38726  -0.38286  -0.37729
 Alpha  occ. eigenvalues --   -0.37462  -0.36522  -0.36434  -0.36018  -0.35033
 Alpha  occ. eigenvalues --   -0.34569  -0.34303  -0.31900  -0.31248  -0.30014
 Alpha  occ. eigenvalues --   -0.29279  -0.28801  -0.27790  -0.24476  -0.24111
 Alpha virt. eigenvalues --   -0.01236   0.00583   0.03210   0.03599   0.10176
 Alpha virt. eigenvalues --    0.10596   0.11365   0.12557   0.13163   0.13330
 Alpha virt. eigenvalues --    0.14163   0.14407   0.15074   0.15530   0.15540

 Mulliken charges:
               1
     1  C   -0.306585
     2  C   -0.307794
     3  C   -0.311539
     4  C   -0.060729
     5  C    0.065780
     6  C   -0.306842
     7  H    0.175351
     8  H    0.163237
     9  H    0.166721
    10  H    0.151808
    11  H    0.164807
    12  H    0.207768
    13  H    0.174136
    14  H    0.191946
    15  H    0.160235
    16  H    0.156665
    17  N   -0.437281
    18  C    0.080919
    19  C    0.081509
    20  C   -0.211430
    21  H    0.202812
    22  C   -0.221661
    23  H    0.244122
    24  C    0.448822
    25  H    0.192083
    26  H    0.209697
    27  N   -0.518514
    28  C   -0.163980
    29  H    0.167346
    30  H    0.219860
    31  C   -0.145138
    32  H    0.160500
    33  H    0.205484
    34  N   -0.813424
    35  S    1.237238
    36  O   -0.604294
    37  O   -0.591799
    38  C    0.049175
    39  C   -0.197718
    40  C   -0.192804
    41  C   -0.172537
    42  C   -0.165157
    43  C   -0.205377
    44  H    0.235854
    45  H    0.141108
    46  H    0.156272
    47  H    0.159896
    48  H    0.154439
    49  O   -0.605178
    50  H    0.451802
    51  C    0.714452
    52  O   -0.683073
    53  O   -0.700278
    54  H    0.432790
    55  C   -0.339514
    56  H    0.144231
    57  H    0.151034
    58  C   -0.078537
    59  H    0.129731
    60  H    0.156327
    61  C   -0.666319
    62  H    0.265828
    63  H    0.200384
    64  H    0.223263
    65  C   -0.285109
    66  H    0.143208
    67  H    0.140709
    68  C   -0.475235
    69  H    0.148477
    70  H    0.148971
    71  H    0.148843
    72  C   -0.334280
    73  H    0.184194
    74  H    0.160215
    75  C   -0.338649
    76  H    0.205974
    77  H    0.164752
 Sum of Mulliken charges =  -0.00000

 Dipole moment (field-independent basis, Debye):
    X=             -3.4961    Y=             -1.4524    Z=             -5.7262  Tot=              6.8645
 Quadrupole moment (field-independent basis, Debye-Ang):
   XX=           -208.3130   YY=           -222.8377   ZZ=           -218.0493
   XY=            -13.6137   XZ=             -4.3339   YZ=             10.7967

 Normal termination of Gaussian 16 at Thu Feb  7 09:13:41 2019.
