 Gaussian 16, Revision A.03,
 Gaussian 16:  ES64L-G16RevA.03 25-Dec-2016

 ------------------------------------------
 #p M062X/6-31G* em=gd3 force int=ultrafine
 ------------------------------------------

 -----
 Title
 -----
 Symbolic Z-matrix:
 Charge =  0 Multiplicity = 1

                         Standard orientation:
 ---------------------------------------------------------------------
 Center     Atomic      Atomic             Coordinates (Angstroms)
 Number     Number       Type             X           Y           Z
 ---------------------------------------------------------------------
      1          6           0       -4.864693    0.510078   -0.555469
      2          6           0       -5.034490   -0.784676   -1.355525
      3          6           0       -3.692664   -1.247171   -1.935979
      4          6           0       -2.701489   -1.456306   -0.795477
      5          6           0       -2.502071   -0.145410    0.003166
      6          6           0       -3.838810    0.343581    0.568867
      7          1           0       -3.803605   -2.171050   -2.513482
      8          1           0       -5.437563   -1.570535   -0.703314
      9          1           0       -5.754748   -0.642032   -2.167113
     10          1           0       -4.527291    1.308190   -1.230821
     11          1           0       -5.826999    0.825460   -0.139696
     12          1           0       -3.088596   -2.222619   -0.115971
     13          1           0       -2.150997    0.610445   -0.711217
     14          1           0       -4.204570   -0.370479    1.314519
     15          1           0       -3.661895    1.300607    1.072564
     16          1           0       -3.327524   -0.466587   -2.616864
     17          7           0       -1.370609   -1.933347   -1.226602
     18          6           0       -0.684353   -1.280518   -2.202574
     19          6           0       -0.677816   -2.734257   -0.374351
     20          6           0        0.666427   -1.377957   -2.333312
     21          1           0       -1.271843   -0.649944   -2.857562
     22          6           0        0.674644   -2.868986   -0.431539
     23          1           0       -1.264697   -3.219716    0.397660
     24          6           0        1.425217   -2.102639   -1.365476
     25          1           0        1.155030   -0.830557   -3.128295
     26          1           0        1.157490   -3.475005    0.321876
     27          7           0        2.752456   -2.074614   -1.337547
     28          6           0        3.487838   -2.575662   -0.165218
     29          1           0        3.344977   -3.654018   -0.051053
     30          1           0        3.116994   -2.040327    0.720372
     31          6           0        3.523826   -1.037308   -2.043927
     32          1           0        3.784528   -1.387332   -3.050559
     33          1           0        2.929755   -0.122226   -2.093110
     34          7           0       -1.418192   -0.250501    0.963841
     35         16           0       -1.431855   -1.116669    2.346319
     36          8           0       -2.666064   -1.904841    2.347106
     37          8           0       -0.159038   -1.825127    2.482136
     38          6           0       -0.529196    2.671473   -0.070677
     39          6           0       -0.044311    2.073601   -1.242236
     40          6           0       -0.779668    2.151192   -2.424738
     41          6           0       -2.012540    2.802715   -2.459518
     42          6           0       -2.506966    3.386942   -1.294919
     43          6           0       -1.765873    3.321589   -0.115384
     44          1           0        0.885515    1.508187   -1.183491
     45          1           0       -0.381153    1.701704   -3.332267
     46          1           0       -2.579581    2.861007   -3.384474
     47          1           0       -3.466852    3.895921   -1.304862
     48          1           0       -2.157470    3.782661    0.789262
     49          8           0        0.694239    1.384616    1.669645
     50          1           0       -0.519859    0.235088    0.811038
     51          6           0        2.039510    0.749225    1.172070
     52          8           0        1.865418    0.185862    0.024486
     53          8           0        2.279199   -0.136922    2.246868
     54          1           0        1.576921   -0.809564    2.183256
     55          6           0        3.135166    1.830461    1.271876
     56          1           0        2.920942    2.507808    2.108223
     57          1           0        4.057163    1.300883    1.544633
     58          6           0        0.258696    2.642039    1.236044
     59          1           0       -0.400278    3.040352    2.022465
     60          1           0        1.098680    3.347774    1.162126
     61          6           0       -1.466764    0.097823    3.644778
     62          1           0       -0.578916    0.719189    3.491275
     63          1           0       -2.387398    0.675949    3.552616
     64          1           0       -1.426524   -0.429642    4.599144
     65          6           0        3.379137    2.609120   -0.018685
     66          1           0        3.657222    1.902127   -0.808650
     67          1           0        2.456716    3.085360   -0.371739
     68          6           0        4.465375    3.668746    0.151081
     69          1           0        4.660216    4.205221   -0.782761
     70          1           0        4.175586    4.407070    0.907202
     71          1           0        5.405958    3.214552    0.482369
     72          6           0        4.930534   -2.190794   -0.470403
     73          1           0        5.535728   -2.136122    0.436372
     74          1           0        5.384910   -2.919653   -1.151000
     75          6           0        4.754634   -0.836213   -1.157676
     76          1           0        4.502470   -0.084546   -0.404388
     77          1           0        5.629826   -0.510466   -1.723933
 ---------------------------------------------------------------------

 SCF Done:  E(RM062X) =  -1991.35573935     A.U. after   15 cycles

 The electronic state is 1-A.
 Alpha  occ. eigenvalues --  -90.14781 -19.62388 -19.62130 -19.58578 -19.56953
 Alpha  occ. eigenvalues --  -19.50559 -14.85198 -14.80043 -14.76630 -10.63164
 Alpha  occ. eigenvalues --  -10.62623 -10.62150 -10.62138 -10.61089 -10.59892
 Alpha  occ. eigenvalues --  -10.57776 -10.57765 -10.57612 -10.57014 -10.56982
 Alpha  occ. eigenvalues --  -10.56900 -10.56323 -10.55882 -10.55105 -10.55093
 Alpha  occ. eigenvalues --  -10.55022 -10.54865 -10.54684 -10.54662 -10.54653
 Alpha  occ. eigenvalues --  -10.54458 -10.54073 -10.53109 -10.51098 -10.50989
 Alpha  occ. eigenvalues --  -10.49529  -8.45750  -6.37978  -6.37929  -6.37796
 Alpha  occ. eigenvalues --   -1.22564  -1.13477  -1.12850  -1.10773  -1.08886
 Alpha  occ. eigenvalues --   -1.05890  -1.02489  -0.99831  -0.95848  -0.95206
 Alpha  occ. eigenvalues --   -0.93482  -0.90136  -0.88580  -0.86538  -0.85349
 Alpha  occ. eigenvalues --   -0.84929  -0.84858  -0.83714  -0.83291  -0.83077
 Alpha  occ. eigenvalues --   -0.76578  -0.75959  -0.75565  -0.74243  -0.73279
 Alpha  occ. eigenvalues --   -0.71771  -0.68224  -0.68156  -0.67757  -0.67498
 Alpha  occ. eigenvalues --   -0.66442  -0.65491  -0.64862  -0.63353  -0.60501
 Alpha  occ. eigenvalues --   -0.60373  -0.59959  -0.59435  -0.57923  -0.57691
 Alpha  occ. eigenvalues --   -0.57169  -0.56411  -0.55697  -0.55107  -0.54379
 Alpha  occ. eigenvalues --   -0.53567  -0.53084  -0.52685  -0.52475  -0.52149
 Alpha  occ. eigenvalues --   -0.51694  -0.50804  -0.50156  -0.49919  -0.49349
 Alpha  occ. eigenvalues --   -0.49227  -0.48958  -0.48469  -0.48166  -0.47999
 Alpha  occ. eigenvalues --   -0.47727  -0.47629  -0.47167  -0.46159  -0.45811
 Alpha  occ. eigenvalues --   -0.45233  -0.45142  -0.44381  -0.43974  -0.43204
 Alpha  occ. eigenvalues --   -0.42484  -0.42317  -0.41159  -0.40891  -0.40774
 Alpha  occ. eigenvalues --   -0.40674  -0.40408  -0.40097  -0.39841  -0.39397
 Alpha  occ. eigenvalues --   -0.39177  -0.38893  -0.38644  -0.38334  -0.37826
 Alpha  occ. eigenvalues --   -0.37391  -0.36502  -0.36436  -0.36074  -0.35012
 Alpha  occ. eigenvalues --   -0.34526  -0.34277  -0.31756  -0.31371  -0.30003
 Alpha  occ. eigenvalues --   -0.29234  -0.28820  -0.27752  -0.24195  -0.23931
 Alpha virt. eigenvalues --   -0.01237   0.00568   0.03223   0.03563   0.10143
 Alpha virt. eigenvalues --    0.10591   0.11328   0.12559   0.13173   0.13298
 Alpha virt. eigenvalues --    0.14134   0.14434   0.15023   0.15508   0.15552

 Mulliken charges:
               1
     1  C   -0.306416
     2  C   -0.307807
     3  C   -0.310914
     4  C   -0.059962
     5  C    0.063778
     6  C   -0.307075
     7  H    0.175562
     8  H    0.163259
     9  H    0.166814
    10  H    0.150995
    11  H    0.165016
    12  H    0.206942
    13  H    0.175077
    14  H    0.193177
    15  H    0.161212
    16  H    0.156215
    17  N   -0.437457
    18  C    0.078140
    19  C    0.078510
    20  C   -0.208252
    21  H    0.203148
    22  C   -0.219845
    23  H    0.243174
    24  C    0.449660
    25  H    0.192058
    26  H    0.209804
    27  N   -0.518599
    28  C   -0.166343
    29  H    0.166924
    30  H    0.222253
    31  C   -0.146069
    32  H    0.160429
    33  H    0.205567
    34  N   -0.807401
    35  S    1.239275
    36  O   -0.603184
    37  O   -0.591522
    38  C    0.051376
    39  C   -0.196149
    40  C   -0.192301
    41  C   -0.172312
    42  C   -0.165439
    43  C   -0.205130
    44  H    0.232594
    45  H    0.141808
    46  H    0.156127
    47  H    0.159700
    48  H    0.153992
    49  O   -0.593674
    50  H    0.447874
    51  C    0.716274
    52  O   -0.694757
    53  O   -0.704403
    54  H    0.432334
    55  C   -0.340694
    56  H    0.143734
    57  H    0.150610
    58  C   -0.081533
    59  H    0.131755
    60  H    0.155711
    61  C   -0.665940
    62  H    0.269437
    63  H    0.200164
    64  H    0.222476
    65  C   -0.285391
    66  H    0.142026
    67  H    0.140404
    68  C   -0.474622
    69  H    0.148059
    70  H    0.149591
    71  H    0.148152
    72  C   -0.333880
    73  H    0.184642
    74  H    0.159953
    75  C   -0.338478
    76  H    0.204516
    77  H    0.165252
 Sum of Mulliken charges =  -0.00000

 Dipole moment (field-independent basis, Debye):
    X=             -3.5968    Y=             -1.6535    Z=             -5.7277  Tot=              6.9626
 Quadrupole moment (field-independent basis, Debye-Ang):
   XX=           -208.6045   YY=           -222.2302   ZZ=           -218.4768
   XY=            -13.2940   XZ=             -4.0681   YZ=             10.7277

 Normal termination of Gaussian 16 at Thu Feb  7 10:32:35 2019.
