 Gaussian 16, Revision A.03,
 Gaussian 16:  ES64L-G16RevA.03 25-Dec-2016

 ------------------------------------------
 #p M062X/6-31G* em=gd3 force int=ultrafine
 ------------------------------------------

 -----
 Title
 -----
 Symbolic Z-matrix:
 Charge =  0 Multiplicity = 1

                         Standard orientation:
 ---------------------------------------------------------------------
 Center     Atomic      Atomic             Coordinates (Angstroms)
 Number     Number       Type             X           Y           Z
 ---------------------------------------------------------------------
      1          6           0       -4.858263    0.485493   -0.548376
      2          6           0       -5.038122   -0.826269   -1.318374
      3          6           0       -3.703465   -1.303235   -1.903500
      4          6           0       -2.700684   -1.484006   -0.768701
      5          6           0       -2.486999   -0.151368   -0.010078
      6          6           0       -3.816233    0.346708    0.565734
      7          1           0       -3.821028   -2.241023   -2.456752
      8          1           0       -5.434575   -1.597653   -0.645165
      9          1           0       -5.767422   -0.700268   -2.124678
     10          1           0       -4.533209    1.269547   -1.245642
     11          1           0       -5.815404    0.807364   -0.125555
     12          1           0       -3.081782   -2.229852   -0.063704
     13          1           0       -2.155740    0.587100   -0.751412
     14          1           0       -4.171768   -0.351527    1.330728
     15          1           0       -3.636230    1.315081    1.045550
     16          1           0       -3.345635   -0.539948   -2.607504
     17          7           0       -1.374979   -1.974374   -1.199796
     18          6           0       -0.692440   -1.334214   -2.187001
     19          6           0       -0.679345   -2.759096   -0.334510
     20          6           0        0.658930   -1.425619   -2.314269
     21          1           0       -1.283391   -0.716622   -2.851436
     22          6           0        0.673800   -2.886037   -0.387609
     23          1           0       -1.264148   -3.230700    0.447636
     24          6           0        1.419396   -2.126638   -1.330601
     25          1           0        1.145771   -0.888255   -3.117082
     26          1           0        1.160323   -3.473293    0.378128
     27          7           0        2.745568   -2.080853   -1.296092
     28          6           0        3.485380   -2.557939   -0.116964
     29          1           0        3.345674   -3.634325    0.017311
     30          1           0        3.115646   -2.006771    0.759704
     31          6           0        3.504444   -1.045025   -2.016022
     32          1           0        3.757651   -1.399524   -3.023040
     33          1           0        2.902271   -0.134721   -2.066858
     34          7           0       -1.385433   -0.214881    0.936893
     35         16           0       -1.392862   -1.050674    2.342862
     36          8           0       -2.629945   -1.834220    2.376091
     37          8           0       -0.121634   -1.761341    2.483618
     38          6           0       -0.525741    2.645192   -0.091424
     39          6           0       -0.050957    2.063633   -1.276306
     40          6           0       -0.806111    2.128961   -2.447039
     41          6           0       -2.048071    2.763109   -2.464373
     42          6           0       -2.530642    3.339934   -1.291535
     43          6           0       -1.771858    3.279671   -0.122702
     44          1           0        0.887303    1.515124   -1.237731
     45          1           0       -0.413465    1.684812   -3.359822
     46          1           0       -2.629095    2.814885   -3.381075
     47          1           0       -3.495022    3.840559   -1.286485
     48          1           0       -2.156957    3.738262    0.786018
     49          8           0        0.736517    1.458806    1.739593
     50          1           0       -0.441368    0.095251    0.655828
     51          6           0        1.991242    0.785231    1.183967
     52          8           0        1.722811    0.188509    0.057804
     53          8           0        2.295907   -0.093366    2.253045
     54          1           0        1.589212   -0.763624    2.231641
     55          6           0        3.135850    1.825801    1.188454
     56          1           0        2.979726    2.531273    2.014967
     57          1           0        4.051238    1.274289    1.438548
     58          6           0        0.279571    2.671721    1.210019
     59          1           0       -0.377490    3.105237    1.977316
     60          1           0        1.110433    3.382755    1.089288
     61          6           0       -1.427204    0.187261    3.617378
     62          1           0       -0.536869    0.803186    3.459077
     63          1           0       -2.346137    0.765598    3.509580
     64          1           0       -1.398737   -0.327677    4.579214
     65          6           0        3.356917    2.574033   -0.123907
     66          1           0        3.595811    1.850397   -0.912196
     67          1           0        2.438130    3.070193   -0.456781
     68          6           0        4.473749    3.609286   -0.000891
     69          1           0        4.657171    4.127525   -0.947230
     70          1           0        4.220919    4.365322    0.751066
     71          1           0        5.411670    3.138138    0.314206
     72          6           0        4.925537   -2.176116   -0.437371
     73          1           0        5.537491   -2.107208    0.463771
     74          1           0        5.375516   -2.914356   -1.110775
     75          6           0        4.742938   -0.831773   -1.142981
     76          1           0        4.501483   -0.068989   -0.397339
     77          1           0        5.612769   -0.513316   -1.721450
 ---------------------------------------------------------------------

 SCF Done:  E(RM062X) =  -1991.35638326     A.U. after   15 cycles

 The electronic state is 1-A.
 Alpha  occ. eigenvalues --  -90.14745 -19.62317 -19.62177 -19.58481 -19.56671
 Alpha  occ. eigenvalues --  -19.50545 -14.85291 -14.80203 -14.76776 -10.63287
 Alpha  occ. eigenvalues --  -10.62732 -10.62232 -10.61964 -10.61062 -10.59823
 Alpha  occ. eigenvalues --  -10.57991 -10.57887 -10.57739 -10.57114 -10.56910
 Alpha  occ. eigenvalues --  -10.56897 -10.56091 -10.55869 -10.55065 -10.54971
 Alpha  occ. eigenvalues --  -10.54880 -10.54805 -10.54722 -10.54645 -10.54507
 Alpha  occ. eigenvalues --  -10.54395 -10.54320 -10.52968 -10.51142 -10.51063
 Alpha  occ. eigenvalues --  -10.49423  -8.45716  -6.37942  -6.37902  -6.37752
 Alpha  occ. eigenvalues --   -1.22531  -1.13600  -1.12995  -1.10770  -1.09075
 Alpha  occ. eigenvalues --   -1.05688  -1.02439  -0.99266  -0.95893  -0.95074
 Alpha  occ. eigenvalues --   -0.93557  -0.90263  -0.88686  -0.86413  -0.85360
 Alpha  occ. eigenvalues --   -0.84893  -0.84826  -0.83892  -0.83142  -0.83048
 Alpha  occ. eigenvalues --   -0.76671  -0.75931  -0.75691  -0.74214  -0.73210
 Alpha  occ. eigenvalues --   -0.71808  -0.68242  -0.68154  -0.67833  -0.67502
 Alpha  occ. eigenvalues --   -0.66512  -0.65458  -0.64796  -0.63467  -0.60496
 Alpha  occ. eigenvalues --   -0.60311  -0.59824  -0.59546  -0.57823  -0.57685
 Alpha  occ. eigenvalues --   -0.57281  -0.56490  -0.55811  -0.55124  -0.54317
 Alpha  occ. eigenvalues --   -0.53613  -0.53004  -0.52673  -0.52461  -0.52021
 Alpha  occ. eigenvalues --   -0.51665  -0.50856  -0.50303  -0.49929  -0.49350
 Alpha  occ. eigenvalues --   -0.49156  -0.48995  -0.48332  -0.48125  -0.47899
 Alpha  occ. eigenvalues --   -0.47744  -0.47594  -0.47140  -0.46200  -0.45915
 Alpha  occ. eigenvalues --   -0.45130  -0.44868  -0.44318  -0.43828  -0.43267
 Alpha  occ. eigenvalues --   -0.42575  -0.42239  -0.41140  -0.41055  -0.40908
 Alpha  occ. eigenvalues --   -0.40705  -0.40515  -0.39968  -0.39840  -0.39329
 Alpha  occ. eigenvalues --   -0.39207  -0.39003  -0.38444  -0.38314  -0.37858
 Alpha  occ. eigenvalues --   -0.37286  -0.36566  -0.36406  -0.36063  -0.34976
 Alpha  occ. eigenvalues --   -0.34452  -0.34199  -0.31870  -0.31242  -0.29869
 Alpha  occ. eigenvalues --   -0.28965  -0.28681  -0.27753  -0.24078  -0.23934
 Alpha virt. eigenvalues --   -0.01369   0.00435   0.03373   0.03668   0.10124
 Alpha virt. eigenvalues --    0.10640   0.11377   0.12482   0.13182   0.13246
 Alpha virt. eigenvalues --    0.14117   0.14378   0.14806   0.15405   0.15564

 Mulliken charges:
               1
     1  C   -0.306410
     2  C   -0.307702
     3  C   -0.310473
     4  C   -0.058739
     5  C    0.057699
     6  C   -0.308788
     7  H    0.175336
     8  H    0.163141
     9  H    0.166766
    10  H    0.151024
    11  H    0.164993
    12  H    0.206922
    13  H    0.175800
    14  H    0.194564
    15  H    0.163228
    16  H    0.156068
    17  N   -0.436469
    18  C    0.073340
    19  C    0.070557
    20  C   -0.205229
    21  H    0.204626
    22  C   -0.214512
    23  H    0.243305
    24  C    0.449076
    25  H    0.192504
    26  H    0.210626
    27  N   -0.520996
    28  C   -0.168108
    29  H    0.167664
    30  H    0.224910
    31  C   -0.148996
    32  H    0.161773
    33  H    0.206025
    34  N   -0.799643
    35  S    1.245057
    36  O   -0.604304
    37  O   -0.595164
    38  C    0.063493
    39  C   -0.194986
    40  C   -0.191491
    41  C   -0.172602
    42  C   -0.165220
    43  C   -0.207534
    44  H    0.226950
    45  H    0.140703
    46  H    0.155351
    47  H    0.158862
    48  H    0.152758
    49  O   -0.573221
    50  H    0.439015
    51  C    0.718836
    52  O   -0.710760
    53  O   -0.710655
    54  H    0.434376
    55  C   -0.339423
    56  H    0.144759
    57  H    0.149957
    58  C   -0.083764
    59  H    0.134324
    60  H    0.152043
    61  C   -0.664727
    62  H    0.274916
    63  H    0.199195
    64  H    0.220697
    65  C   -0.286707
    66  H    0.137665
    67  H    0.142161
    68  C   -0.474100
    69  H    0.147878
    70  H    0.150869
    71  H    0.147549
    72  C   -0.333449
    73  H    0.185711
    74  H    0.160750
    75  C   -0.340176
    76  H    0.203029
    77  H    0.167495
 Sum of Mulliken charges =  -0.00000

 Dipole moment (field-independent basis, Debye):
    X=             -3.4317    Y=             -2.0584    Z=             -5.9060  Tot=              7.1340
 Quadrupole moment (field-independent basis, Debye-Ang):
   XX=           -207.8766   YY=           -221.7189   ZZ=           -219.3547
   XY=            -13.0682   XZ=             -4.3742   YZ=             10.4575

 Normal termination of Gaussian 16 at Thu Feb  7 11:38:53 2019.
