 Gaussian 16, Revision A.03,
 Gaussian 16:  ES64L-G16RevA.03 25-Dec-2016

 ------------------------------------------
 #p M062X/6-31G* em=gd3 force int=ultrafine
 ------------------------------------------

 -----
 Title
 -----
 Symbolic Z-matrix:
 Charge =  0 Multiplicity = 1

                         Standard orientation:
 ---------------------------------------------------------------------
 Center     Atomic      Atomic             Coordinates (Angstroms)
 Number     Number       Type             X           Y           Z
 ---------------------------------------------------------------------
      1          6           0       -4.782274    0.367582   -0.604670
      2          6           0       -4.939938   -0.925121   -1.410875
      3          6           0       -3.596758   -1.363611   -2.007282
      4          6           0       -2.599320   -1.558488   -0.871341
      5          6           0       -2.394764   -0.238786   -0.082312
      6          6           0       -3.734509    0.221803    0.503409
      7          1           0       -3.698987   -2.288128   -2.585654
      8          1           0       -5.322769   -1.722101   -0.759976
      9          1           0       -5.671496   -0.788523   -2.213460
     10          1           0       -4.476877    1.176123   -1.281517
     11          1           0       -5.744145    0.658190   -0.169739
     12          1           0       -2.979765   -2.319582   -0.183085
     13          1           0       -2.075825    0.519754   -0.808729
     14          1           0       -4.078094   -0.502537    1.249443
     15          1           0       -3.574876    1.181426    1.006374
     16          1           0       -3.249545   -0.575881   -2.689537
     17          7           0       -1.264696   -2.029039   -1.296640
     18          6           0       -0.579467   -1.359812   -2.261038
     19          6           0       -0.566355   -2.795542   -0.416189
     20          6           0        0.778015   -1.398577   -2.347042
     21          1           0       -1.174349   -0.763407   -2.941717
     22          6           0        0.792077   -2.861702   -0.421376
     23          1           0       -1.157677   -3.296936    0.342335
     24          6           0        1.531056   -2.057556   -1.329615
     25          1           0        1.267114   -0.843628   -3.135938
     26          1           0        1.278417   -3.429547    0.359054
     27          7           0        2.850411   -1.931623   -1.236815
     28          6           0        3.573401   -2.328969   -0.018270
     29          1           0        3.471144   -3.403237    0.158181
     30          1           0        3.156992   -1.760406    0.826708
     31          6           0        3.574150   -0.885756   -1.970476
     32          1           0        3.828084   -1.240858   -2.976779
     33          1           0        2.938500    0.001219   -2.041147
     34          7           0       -1.290310   -0.316696    0.860520
     35         16           0       -1.359784   -1.158681    2.253255
     36          8           0       -2.548834   -2.016588    2.221524
     37          8           0       -0.063503   -1.805553    2.476328
     38          6           0       -0.635054    2.701449    0.054361
     39          6           0       -0.160809    2.238872   -1.183065
     40          6           0       -0.953084    2.326165   -2.325883
     41          6           0       -2.237139    2.868705   -2.265736
     42          6           0       -2.722496    3.324309   -1.043467
     43          6           0       -1.923254    3.241584    0.097219
     44          1           0        0.809492    1.758206   -1.221331
     45          1           0       -0.558426    1.973829   -3.276475
     46          1           0       -2.848980    2.940692   -3.160785
     47          1           0       -3.720084    3.749866   -0.975626
     48          1           0       -2.309794    3.612497    1.044585
     49          8           0        0.678613    1.570233    1.908795
     50          1           0       -0.300070   -0.067101    0.556726
     51          6           0        1.806969    0.836390    1.264194
     52          8           0        1.393301    0.228052    0.170219
     53          8           0        2.197275   -0.045914    2.300850
     54          1           0        1.496420   -0.722037    2.338428
     55          6           0        3.018443    1.797997    1.127714
     56          1           0        2.989126    2.518908    1.954585
     57          1           0        3.905386    1.178687    1.311171
     58          6           0        0.216023    2.757379    1.326163
     59          1           0       -0.404033    3.234029    2.096296
     60          1           0        1.054151    3.445990    1.144488
     61          6           0       -1.553064    0.058957    3.533970
     62          1           0       -0.693267    0.728941    3.445562
     63          1           0       -2.492311    0.587478    3.361693
     64          1           0       -1.569508   -0.464116    4.491557
     65          6           0        3.196373    2.518600   -0.205655
     66          1           0        3.125398    1.784995   -1.017173
     67          1           0        2.386081    3.234171   -0.386582
     68          6           0        4.534339    3.251986   -0.278719
     69          1           0        4.662663    3.767431   -1.235746
     70          1           0        4.614390    3.998772    0.519292
     71          1           0        5.371390    2.554029   -0.155671
     72          6           0        5.008778   -1.915911   -0.325108
     73          1           0        5.594599   -1.776151    0.585239
     74          1           0        5.498513   -2.677230   -0.942038
     75          6           0        4.816519   -0.618798   -1.115073
     76          1           0        4.596176    0.196305   -0.421499
     77          1           0        5.683589   -0.340463   -1.717820
 ---------------------------------------------------------------------

 SCF Done:  E(RM062X) =  -1991.35887477     A.U. after   14 cycles

 The electronic state is 1-A.
 Alpha  occ. eigenvalues --  -90.14081 -19.61699 -19.61679 -19.58761 -19.56731
 Alpha  occ. eigenvalues --  -19.51373 -14.85135 -14.80454 -14.75534 -10.63395
 Alpha  occ. eigenvalues --  -10.62768 -10.62317 -10.62102 -10.60672 -10.59245
 Alpha  occ. eigenvalues --  -10.58641 -10.57949 -10.57894 -10.57089 -10.56872
 Alpha  occ. eigenvalues --  -10.56662 -10.55619 -10.55579 -10.55160 -10.54969
 Alpha  occ. eigenvalues --  -10.54793 -10.54732 -10.54676 -10.54524 -10.54353
 Alpha  occ. eigenvalues --  -10.54277 -10.54233 -10.53102 -10.51649 -10.51553
 Alpha  occ. eigenvalues --  -10.49778  -8.45059  -6.37274  -6.37253  -6.37097
 Alpha  occ. eigenvalues --   -1.21910  -1.13648  -1.13485  -1.10163  -1.09352
 Alpha  occ. eigenvalues --   -1.05914  -1.01623  -0.99394  -0.95695  -0.94959
 Alpha  occ. eigenvalues --   -0.93464  -0.90255  -0.88751  -0.85899  -0.85819
 Alpha  occ. eigenvalues --   -0.84802  -0.84663  -0.84299  -0.83032  -0.82626
 Alpha  occ. eigenvalues --   -0.76646  -0.76351  -0.75831  -0.74400  -0.72725
 Alpha  occ. eigenvalues --   -0.71584  -0.68331  -0.68275  -0.67924  -0.67160
 Alpha  occ. eigenvalues --   -0.66759  -0.65202  -0.64866  -0.63520  -0.60580
 Alpha  occ. eigenvalues --   -0.60405  -0.59799  -0.58881  -0.57822  -0.57563
 Alpha  occ. eigenvalues --   -0.57139  -0.56425  -0.55723  -0.55159  -0.54171
 Alpha  occ. eigenvalues --   -0.53477  -0.52638  -0.52403  -0.52368  -0.51891
 Alpha  occ. eigenvalues --   -0.51530  -0.51071  -0.50922  -0.49847  -0.49594
 Alpha  occ. eigenvalues --   -0.49158  -0.48808  -0.48201  -0.48108  -0.48071
 Alpha  occ. eigenvalues --   -0.47631  -0.47434  -0.46897  -0.46468  -0.46094
 Alpha  occ. eigenvalues --   -0.44916  -0.44685  -0.44102  -0.43887  -0.43250
 Alpha  occ. eigenvalues --   -0.42457  -0.42087  -0.41513  -0.41411  -0.41173
 Alpha  occ. eigenvalues --   -0.40880  -0.40451  -0.40014  -0.39845  -0.39448
 Alpha  occ. eigenvalues --   -0.39252  -0.39046  -0.38455  -0.37892  -0.37579
 Alpha  occ. eigenvalues --   -0.37363  -0.36727  -0.36571  -0.35687  -0.34876
 Alpha  occ. eigenvalues --   -0.34356  -0.33898  -0.31724  -0.31001  -0.29734
 Alpha  occ. eigenvalues --   -0.28886  -0.28575  -0.27593  -0.24973  -0.24509
 Alpha virt. eigenvalues --   -0.01451   0.00464   0.03597   0.03807   0.10177
 Alpha virt. eigenvalues --    0.11050   0.11615   0.12117   0.13212   0.13552
 Alpha virt. eigenvalues --    0.14198   0.14671   0.14794   0.15310   0.15598

 Mulliken charges:
               1
     1  C   -0.306112
     2  C   -0.306930
     3  C   -0.309989
     4  C   -0.059398
     5  C    0.057216
     6  C   -0.311878
     7  H    0.173752
     8  H    0.162796
     9  H    0.165191
    10  H    0.150774
    11  H    0.162982
    12  H    0.208511
    13  H    0.172589
    14  H    0.193351
    15  H    0.163419
    16  H    0.153834
    17  N   -0.431717
    18  C    0.069181
    19  C    0.064059
    20  C   -0.204284
    21  H    0.206884
    22  C   -0.208949
    23  H    0.245807
    24  C    0.449046
    25  H    0.191116
    26  H    0.211736
    27  N   -0.528075
    28  C   -0.174261
    29  H    0.169870
    30  H    0.234575
    31  C   -0.154094
    32  H    0.167762
    33  H    0.201429
    34  N   -0.817096
    35  S    1.253929
    36  O   -0.612043
    37  O   -0.608892
    38  C    0.089263
    39  C   -0.179307
    40  C   -0.189065
    41  C   -0.170651
    42  C   -0.163636
    43  C   -0.212185
    44  H    0.204916
    45  H    0.141051
    46  H    0.154675
    47  H    0.158389
    48  H    0.152327
    49  O   -0.548245
    50  H    0.449645
    51  C    0.727367
    52  O   -0.724270
    53  O   -0.718130
    54  H    0.445730
    55  C   -0.337914
    56  H    0.150017
    57  H    0.149397
    58  C   -0.093870
    59  H    0.141170
    60  H    0.146897
    61  C   -0.662808
    62  H    0.271414
    63  H    0.196284
    64  H    0.217353
    65  C   -0.295450
    66  H    0.140885
    67  H    0.146786
    68  C   -0.475094
    69  H    0.149384
    70  H    0.155918
    71  H    0.143743
    72  C   -0.331809
    73  H    0.187559
    74  H    0.163468
    75  C   -0.344003
    76  H    0.195089
    77  H    0.171619
 Sum of Mulliken charges =  -0.00000

 Dipole moment (field-independent basis, Debye):
    X=             -2.2262    Y=             -1.8538    Z=             -6.4651  Tot=              7.0845
 Quadrupole moment (field-independent basis, Debye-Ang):
   XX=           -205.0278   YY=           -223.2711   ZZ=           -219.7743
   XY=            -12.1113   XZ=             -5.3331   YZ=             10.0793

 Normal termination of Gaussian 16 at Thu Feb  7 16:32:57 2019.
