 Gaussian 16, Revision A.03,
 Gaussian 16:  ES64L-G16RevA.03 25-Dec-2016

 ------------------------------------------
 #p M062X/6-31G* em=gd3 force int=ultrafine
 ------------------------------------------

 -----
 Title
 -----
 Symbolic Z-matrix:
 Charge =  0 Multiplicity = 1

                         Standard orientation:
 ---------------------------------------------------------------------
 Center     Atomic      Atomic             Coordinates (Angstroms)
 Number     Number       Type             X           Y           Z
 ---------------------------------------------------------------------
      1          6           0       -4.785055    0.442709   -0.520114
      2          6           0       -4.987048   -0.850023   -1.316368
      3          6           0       -3.667601   -1.317534   -1.943170
      4          6           0       -2.646585   -1.526450   -0.830946
      5          6           0       -2.400260   -0.209700   -0.050031
      6          6           0       -3.715778    0.280118    0.565039
      7          1           0       -3.801921   -2.243169   -2.512987
      8          1           0       -5.369395   -1.636525   -0.652518
      9          1           0       -5.735227   -0.702738   -2.101517
     10          1           0       -4.478025    1.241815   -1.207516
     11          1           0       -5.730754    0.755151   -0.065430
     12          1           0       -3.022642   -2.280124   -0.132361
     13          1           0       -2.083217    0.541603   -0.784621
     14          1           0       -4.056537   -0.433817    1.322395
     15          1           0       -3.524573    1.238523    1.059507
     16          1           0       -3.321669   -0.541028   -2.638785
     17          7           0       -1.329431   -2.018086   -1.286527
     18          6           0       -0.646332   -1.337812   -2.245693
     19          6           0       -0.630897   -2.811363   -0.430891
     20          6           0        0.709225   -1.390600   -2.347552
     21          1           0       -1.241422   -0.717631   -2.904742
     22          6           0        0.726224   -2.900510   -0.458051
     23          1           0       -1.218718   -3.314593    0.329225
     24          6           0        1.465809   -2.086428   -1.357220
     25          1           0        1.197486   -0.822022   -3.127391
     26          1           0        1.213944   -3.492194    0.303509
     27          7           0        2.787362   -1.981176   -1.279287
     28          6           0        3.520865   -2.435132   -0.087856
     29          1           0        3.404565   -3.513585    0.049990
     30          1           0        3.126185   -1.891051    0.782875
     31          6           0        3.513298   -0.909515   -1.975330
     32          1           0        3.757013   -1.224330   -2.997453
     33          1           0        2.883131   -0.016329   -1.996325
     34          7           0       -1.276444   -0.308169    0.868250
     35         16           0       -1.323386   -1.152786    2.262506
     36          8           0       -2.529218   -1.987024    2.254090
     37          8           0       -0.033618   -1.822384    2.448875
     38          6           0       -0.591423    2.683605    0.019582
     39          6           0       -0.119380    2.188556   -1.206444
     40          6           0       -0.901120    2.276880   -2.356825
     41          6           0       -2.171535    2.851972   -2.316713
     42          6           0       -2.653598    3.342129   -1.106179
     43          6           0       -1.865688    3.258283    0.042172
     44          1           0        0.839007    1.681615   -1.226587
     45          1           0       -0.507827    1.898852   -3.298383
     46          1           0       -2.774494    2.923605   -3.217773
     47          1           0       -3.639879    3.795178   -1.053810
     48          1           0       -2.250405    3.654892    0.979807
     49          8           0        0.712825    1.545402    1.877427
     50          1           0       -0.297818   -0.062975    0.552138
     51          6           0        1.860482    0.821468    1.245590
     52          8           0        1.466760    0.212159    0.147234
     53          8           0        2.241440   -0.059904    2.286335
     54          1           0        1.548755   -0.745133    2.303679
     55          6           0        3.056134    1.802693    1.133072
     56          1           0        2.997332    2.518279    1.962599
     57          1           0        3.955318    1.204990    1.326387
     58          6           0        0.244976    2.733483    1.302352
     59          1           0       -0.390113    3.195192    2.069777
     60          1           0        1.076793    3.434913    1.138916
     61          6           0       -1.464448    0.062628    3.551902
     62          1           0       -0.592894    0.715115    3.449315
     63          1           0       -2.395908    0.611192    3.401462
     64          1           0       -1.472626   -0.465859    4.506625
     65          6           0        3.234443    2.538615   -0.191856
     66          1           0        3.302617    1.806580   -1.004455
     67          1           0        2.360745    3.155241   -0.427831
     68          6           0        4.480884    3.421987   -0.179116
     69          1           0        4.624332    3.938531   -1.133218
     70          1           0        4.407930    4.182009    0.606029
     71          1           0        5.379689    2.828603    0.023830
     72          6           0        4.956430   -2.027489   -0.398879
     73          1           0        5.560693   -1.941857    0.505988
     74          1           0        5.423361   -2.763016   -1.063244
     75          6           0        4.763384   -0.690382   -1.117948
     76          1           0        4.546663    0.085564   -0.379282
     77          1           0        5.626325   -0.381982   -1.711813
 ---------------------------------------------------------------------

 SCF Done:  E(RM062X) =  -1991.35839241     A.U. after   14 cycles

 The electronic state is 1-A.
 Alpha  occ. eigenvalues --  -90.14210 -19.61811 -19.61785 -19.58668 -19.56681
 Alpha  occ. eigenvalues --  -19.51207 -14.85180 -14.80441 -14.75826 -10.63420
 Alpha  occ. eigenvalues --  -10.62788 -10.62216 -10.62209 -10.60746 -10.59379
 Alpha  occ. eigenvalues --  -10.58420 -10.58002 -10.57958 -10.57170 -10.56898
 Alpha  occ. eigenvalues --  -10.56702 -10.55671 -10.55620 -10.55104 -10.54849
 Alpha  occ. eigenvalues --  -10.54807 -10.54806 -10.54734 -10.54583 -10.54408
 Alpha  occ. eigenvalues --  -10.54342 -10.54330 -10.53068 -10.51476 -10.51431
 Alpha  occ. eigenvalues --  -10.49658  -8.45186  -6.37404  -6.37380  -6.37223
 Alpha  occ. eigenvalues --   -1.22032  -1.13593  -1.13482  -1.10287  -1.09342
 Alpha  occ. eigenvalues --   -1.05861  -1.01775  -0.99296  -0.95757  -0.94994
 Alpha  occ. eigenvalues --   -0.93503  -0.90307  -0.88756  -0.85929  -0.85758
 Alpha  occ. eigenvalues --   -0.84827  -0.84720  -0.84220  -0.83060  -0.82715
 Alpha  occ. eigenvalues --   -0.76671  -0.76260  -0.75830  -0.74360  -0.72812
 Alpha  occ. eigenvalues --   -0.71662  -0.68327  -0.68221  -0.67940  -0.67223
 Alpha  occ. eigenvalues --   -0.66741  -0.65239  -0.64869  -0.63528  -0.60550
 Alpha  occ. eigenvalues --   -0.60403  -0.59778  -0.59062  -0.57803  -0.57605
 Alpha  occ. eigenvalues --   -0.57188  -0.56442  -0.55794  -0.55172  -0.54204
 Alpha  occ. eigenvalues --   -0.53560  -0.52666  -0.52475  -0.52453  -0.51909
 Alpha  occ. eigenvalues --   -0.51554  -0.51012  -0.50721  -0.49884  -0.49541
 Alpha  occ. eigenvalues --   -0.49164  -0.48846  -0.48208  -0.48141  -0.48001
 Alpha  occ. eigenvalues --   -0.47684  -0.47473  -0.46919  -0.46425  -0.46103
 Alpha  occ. eigenvalues --   -0.44885  -0.44742  -0.44154  -0.43863  -0.43264
 Alpha  occ. eigenvalues --   -0.42525  -0.42147  -0.41390  -0.41307  -0.41102
 Alpha  occ. eigenvalues --   -0.40905  -0.40491  -0.39990  -0.39802  -0.39294
 Alpha  occ. eigenvalues --   -0.39253  -0.39076  -0.38437  -0.37979  -0.37605
 Alpha  occ. eigenvalues --   -0.37392  -0.36745  -0.36553  -0.35760  -0.34912
 Alpha  occ. eigenvalues --   -0.34391  -0.33981  -0.31667  -0.31118  -0.29777
 Alpha  occ. eigenvalues --   -0.28877  -0.28605  -0.27656  -0.24801  -0.24373
 Alpha virt. eigenvalues --   -0.01527   0.00398   0.03543   0.03747   0.10135
 Alpha virt. eigenvalues --    0.10976   0.11649   0.12221   0.13167   0.13497
 Alpha virt. eigenvalues --    0.14221   0.14574   0.14754   0.15224   0.15599

 Mulliken charges:
               1
     1  C   -0.306283
     2  C   -0.307162
     3  C   -0.309196
     4  C   -0.060239
     5  C    0.056515
     6  C   -0.311411
     7  H    0.174043
     8  H    0.162864
     9  H    0.165561
    10  H    0.151013
    11  H    0.163421
    12  H    0.209075
    13  H    0.173149
    14  H    0.193171
    15  H    0.163587
    16  H    0.154310
    17  N   -0.430626
    18  C    0.067325
    19  C    0.063875
    20  C   -0.201650
    21  H    0.206391
    22  C   -0.209254
    23  H    0.245136
    24  C    0.445872
    25  H    0.192111
    26  H    0.211510
    27  N   -0.525900
    28  C   -0.170754
    29  H    0.169739
    30  H    0.229288
    31  C   -0.154788
    32  H    0.165459
    33  H    0.206102
    34  N   -0.815335
    35  S    1.253137
    36  O   -0.611749
    37  O   -0.605991
    38  C    0.084203
    39  C   -0.184674
    40  C   -0.189832
    41  C   -0.171280
    42  C   -0.163733
    43  C   -0.212065
    44  H    0.212062
    45  H    0.140553
    46  H    0.154934
    47  H    0.158609
    48  H    0.152476
    49  O   -0.550850
    50  H    0.448234
    51  C    0.724256
    52  O   -0.721726
    53  O   -0.718073
    54  H    0.444341
    55  C   -0.338569
    56  H    0.148690
    57  H    0.151202
    58  C   -0.091091
    59  H    0.139800
    60  H    0.147864
    61  C   -0.663333
    62  H    0.273857
    63  H    0.196355
    64  H    0.217665
    65  C   -0.292470
    66  H    0.135357
    67  H    0.146189
    68  C   -0.473301
    69  H    0.148834
    70  H    0.154411
    71  H    0.145209
    72  C   -0.331928
    73  H    0.187069
    74  H    0.162897
    75  C   -0.343103
    76  H    0.197634
    77  H    0.171015
 Sum of Mulliken charges =  -0.00000

 Dipole moment (field-independent basis, Debye):
    X=             -2.6016    Y=             -1.9417    Z=             -6.3369  Tot=              7.1200
 Quadrupole moment (field-independent basis, Debye-Ang):
   XX=           -205.8362   YY=           -222.6825   ZZ=           -219.9451
   XY=            -12.4327   XZ=             -5.2818   YZ=             10.0561

 Normal termination of Gaussian 16 at Thu Feb  7 14:34:57 2019.
