 Gaussian 16, Revision A.03,
 Gaussian 16:  ES64L-G16RevA.03 25-Dec-2016

 ------------------------------------------
 #p M062X/6-31G* em=gd3 force int=ultrafine
 ------------------------------------------

 -----
 Title
 -----
 Symbolic Z-matrix:
 Charge =  0 Multiplicity = 1

                         Standard orientation:
 ---------------------------------------------------------------------
 Center     Atomic      Atomic             Coordinates (Angstroms)
 Number     Number       Type             X           Y           Z
 ---------------------------------------------------------------------
      1          6           0       -4.870022    0.100844   -0.432584
      2          6           0       -4.922529   -1.188547   -1.257687
      3          6           0       -3.545034   -1.516774   -1.846192
      4          6           0       -2.538850   -1.639241   -0.706384
      5          6           0       -2.431520   -0.311307    0.096768
      6          6           0       -3.815887    0.018012    0.675658
      7          1           0       -3.574773   -2.442481   -2.432392
      8          1           0       -5.249914   -2.020434   -0.620334
      9          1           0       -5.654722   -1.098392   -2.066906
     10          1           0       -4.618167    0.938965   -1.097641
     11          1           0       -5.856506    0.314157   -0.007267
     12          1           0       -2.855942   -2.434156   -0.025934
     13          1           0       -2.213960    0.464063   -0.652981
     14          1           0       -4.091904   -0.747810    1.411720
     15          1           0       -3.738844    0.977513    1.201097
     16          1           0       -3.259488   -0.698759   -2.521898
     17          7           0       -1.176083   -2.015628   -1.148988
     18          6           0       -0.561163   -1.339728   -2.146624
     19          6           0       -0.423977   -2.765594   -0.309304
     20          6           0        0.792444   -1.372689   -2.322305
     21          1           0       -1.202231   -0.747205   -2.786557
     22          6           0        0.935011   -2.843314   -0.418215
     23          1           0       -0.961414   -3.257624    0.494240
     24          6           0        1.611064   -2.063421   -1.386308
     25          1           0        1.225988   -0.815258   -3.142118
     26          1           0        1.469126   -3.415287    0.327469
     27          7           0        2.947644   -1.968508   -1.401507
     28          6           0        3.741325   -2.455522   -0.266245
     29          1           0        3.686642   -3.545776   -0.194429
     30          1           0        3.347345   -2.015650    0.660730
     31          6           0        3.643624   -0.895156   -2.127179
     32          1           0        3.904063   -1.230123   -3.138682
     33          1           0        3.001179   -0.012567   -2.185306
     34          7           0       -1.305254   -0.272831    1.006266
     35         16           0       -1.268153   -1.204535    2.280837
     36          8           0       -2.267598   -2.296059    2.262802
     37          8           0        0.129203   -1.659823    2.517873
     38          6           0       -1.084749    2.860865   -0.168295
     39          6           0       -0.380118    2.180253   -1.167462
     40          6           0       -0.927064    2.058860   -2.442939
     41          6           0       -2.191985    2.574666   -2.727178
     42          6           0       -2.907458    3.226315   -1.725102
     43          6           0       -2.350400    3.370110   -0.456383
     44          1           0        0.572056    1.711149   -0.925533
     45          1           0       -0.363177    1.551721   -3.222681
     46          1           0       -2.618226    2.470515   -3.720602
     47          1           0       -3.898713    3.621320   -1.927612
     48          1           0       -2.909240    3.875046    0.328557
     49          8           0        0.235592    1.903698    1.629796
     50          1           0       -0.285139    1.093854    1.350545
     51          6           0        2.438996    0.647174    1.211605
     52          8           0        2.113924    0.209167    0.121444
     53          8           0        2.219193    0.015264    2.353008
     54          1           0        1.515217   -0.682008    2.242253
     55          6           0        3.193333    1.942643    1.399396
     56          1           0        2.707199    2.475746    2.221785
     57          1           0        4.211389    1.699980    1.735952
     58          6           0       -0.491316    3.023699    1.215486
     59          1           0       -1.299368    3.274946    1.922514
     60          1           0        0.204592    3.875475    1.216860
     61          6           0       -1.633912   -0.165397    3.692277
     62          1           0       -0.925108    0.665851    3.667416
     63          1           0       -2.658419    0.198227    3.591917
     64          1           0       -1.517667   -0.752349    4.604336
     65          6           0        3.221997    2.790516    0.134225
     66          1           0        3.648326    2.206192   -0.690281
     67          1           0        2.189817    3.015260   -0.157182
     68          6           0        4.006848    4.085330    0.320833
     69          1           0        4.028142    4.673868   -0.600957
     70          1           0        3.558515    4.705254    1.104302
     71          1           0        5.042751    3.880814    0.612795
     72          6           0        5.149059   -1.950854   -0.571072
     73          1           0        5.747900   -1.845156    0.335751
     74          1           0        5.661768   -2.645562   -1.244190
     75          6           0        4.884347   -0.617162   -1.273859
     76          1           0        4.633374    0.146665   -0.532418
     77          1           0        5.728923   -0.264095   -1.869107
 ---------------------------------------------------------------------

 SCF Done:  E(RM062X) =  -1991.38864751     A.U. after   15 cycles

 The electronic state is 1-A.
 Alpha  occ. eigenvalues --  -90.10342 -19.63380 -19.60091 -19.59207 -19.58551
 Alpha  occ. eigenvalues --  -19.58337 -14.84797 -14.80494 -14.69369 -10.65486
 Alpha  occ. eigenvalues --  -10.63224 -10.62404 -10.61503 -10.59132 -10.59061
 Alpha  occ. eigenvalues --  -10.59048 -10.57822 -10.57419 -10.56810 -10.56657
 Alpha  occ. eigenvalues --  -10.56027 -10.55743 -10.55529 -10.54979 -10.54922
 Alpha  occ. eigenvalues --  -10.54871 -10.54596 -10.54555 -10.54500 -10.53793
 Alpha  occ. eigenvalues --  -10.53671 -10.53563 -10.53194 -10.53120 -10.52633
 Alpha  occ. eigenvalues --  -10.52619  -8.41306  -6.33543  -6.33451  -6.33371
 Alpha  occ. eigenvalues --   -1.19128  -1.17863  -1.12933  -1.10269  -1.09858
 Alpha  occ. eigenvalues --   -1.09132  -1.06130  -0.97531  -0.95270  -0.94789
 Alpha  occ. eigenvalues --   -0.92184  -0.89847  -0.88576  -0.88102  -0.85024
 Alpha  occ. eigenvalues --   -0.84937  -0.83653  -0.83505  -0.83301  -0.80170
 Alpha  occ. eigenvalues --   -0.79175  -0.76344  -0.75650  -0.74683  -0.70936
 Alpha  occ. eigenvalues --   -0.70196  -0.69118  -0.68709  -0.68354  -0.68019
 Alpha  occ. eigenvalues --   -0.65831  -0.64727  -0.63936  -0.63429  -0.61613
 Alpha  occ. eigenvalues --   -0.60262  -0.59385  -0.58999  -0.58351  -0.56164
 Alpha  occ. eigenvalues --   -0.55453  -0.55171  -0.55069  -0.54117  -0.53702
 Alpha  occ. eigenvalues --   -0.53441  -0.53069  -0.52436  -0.51953  -0.51710
 Alpha  occ. eigenvalues --   -0.51126  -0.50984  -0.50610  -0.50134  -0.49830
 Alpha  occ. eigenvalues --   -0.49591  -0.49509  -0.48820  -0.48342  -0.47993
 Alpha  occ. eigenvalues --   -0.47793  -0.47174  -0.46983  -0.46979  -0.45920
 Alpha  occ. eigenvalues --   -0.45784  -0.45236  -0.43946  -0.43651  -0.43426
 Alpha  occ. eigenvalues --   -0.42774  -0.42519  -0.42225  -0.41961  -0.41890
 Alpha  occ. eigenvalues --   -0.41158  -0.40866  -0.40555  -0.39906  -0.39539
 Alpha  occ. eigenvalues --   -0.39362  -0.39221  -0.38811  -0.38384  -0.37897
 Alpha  occ. eigenvalues --   -0.37313  -0.36217  -0.35850  -0.35348  -0.35121
 Alpha  occ. eigenvalues --   -0.34373  -0.33097  -0.32061  -0.31701  -0.31498
 Alpha  occ. eigenvalues --   -0.29865  -0.28882  -0.28317  -0.27442  -0.25390
 Alpha virt. eigenvalues --   -0.01025   0.00655   0.03268   0.03781   0.09058
 Alpha virt. eigenvalues --    0.10159   0.10907   0.11809   0.12979   0.13514
 Alpha virt. eigenvalues --    0.13869   0.14263   0.15062   0.15486   0.15780

 Mulliken charges:
               1
     1  C   -0.303910
     2  C   -0.304179
     3  C   -0.309636
     4  C   -0.073285
     5  C    0.062924
     6  C   -0.305081
     7  H    0.166109
     8  H    0.160953
     9  H    0.159124
    10  H    0.146112
    11  H    0.156705
    12  H    0.212610
    13  H    0.141421
    14  H    0.179342
    15  H    0.149651
    16  H    0.150455
    17  N   -0.424244
    18  C    0.099719
    19  C    0.083931
    20  C   -0.227676
    21  H    0.204915
    22  C   -0.226746
    23  H    0.264119
    24  C    0.428084
    25  H    0.188104
    26  H    0.207134
    27  N   -0.528615
    28  C   -0.157861
    29  H    0.178362
    30  H    0.199207
    31  C   -0.146868
    32  H    0.169566
    33  H    0.195528
    34  N   -0.756120
    35  S    1.249497
    36  O   -0.646398
    37  O   -0.670300
    38  C    0.048647
    39  C   -0.176899
    40  C   -0.187248
    41  C   -0.169813
    42  C   -0.161882
    43  C   -0.198231
    44  H    0.203963
    45  H    0.139167
    46  H    0.156433
    47  H    0.161892
    48  H    0.157090
    49  O   -0.713159
    50  H    0.482125
    51  C    0.649543
    52  O   -0.522721
    53  O   -0.645851
    54  H    0.485665
    55  C   -0.368516
    56  H    0.201210
    57  H    0.164304
    58  C   -0.066080
    59  H    0.128044
    60  H    0.155856
    61  C   -0.657435
    62  H    0.220445
    63  H    0.187768
    64  H    0.207636
    65  C   -0.287449
    66  H    0.144010
    67  H    0.164838
    68  C   -0.480342
    69  H    0.158649
    70  H    0.158458
    71  H    0.150595
    72  C   -0.337235
    73  H    0.184237
    74  H    0.170002
    75  C   -0.335809
    76  H    0.182255
    77  H    0.173185
 Sum of Mulliken charges =  -0.00000

 Dipole moment (field-independent basis, Debye):
    X=              1.5436    Y=             -0.3587    Z=             -6.5515  Tot=              6.7404
 Quadrupole moment (field-independent basis, Debye-Ang):
   XX=           -198.3978   YY=           -222.9058   ZZ=           -222.0801
   XY=            -11.9027   XZ=             -0.9287   YZ=             12.4582

 Normal termination of Gaussian 16 at Fri Feb  8 00:04:05 2019.
