 Gaussian 16, Revision A.03,
 Gaussian 16:  ES64L-G16RevA.03 25-Dec-2016

 ------------------------------------------
 #p M062X/6-31G* em=gd3 force int=ultrafine
 ------------------------------------------

 -----
 Title
 -----
 Symbolic Z-matrix:
 Charge =  0 Multiplicity = 1

                         Standard orientation:
 ---------------------------------------------------------------------
 Center     Atomic      Atomic             Coordinates (Angstroms)
 Number     Number       Type             X           Y           Z
 ---------------------------------------------------------------------
      1          6           0       -4.868980    0.070721   -0.426010
      2          6           0       -4.908044   -1.214550   -1.258297
      3          6           0       -3.527259   -1.524711   -1.848766
      4          6           0       -2.521464   -1.646015   -0.708594
      5          6           0       -2.425691   -0.321521    0.101195
      6          6           0       -3.813107   -0.006497    0.680928
      7          1           0       -3.547435   -2.446265   -2.441838
      8          1           0       -5.226003   -2.053537   -0.625460
      9          1           0       -5.641612   -1.127761   -2.066595
     10          1           0       -4.627391    0.915341   -1.086590
     11          1           0       -5.857282    0.270384    0.001724
     12          1           0       -2.833581   -2.446851   -0.032993
     13          1           0       -2.213749    0.458948   -0.644691
     14          1           0       -4.081800   -0.777501    1.414293
     15          1           0       -3.744612    0.951756    1.210002
     16          1           0       -3.248999   -0.698734   -2.517877
     17          7           0       -1.155750   -2.010458   -1.151677
     18          6           0       -0.544810   -1.325666   -2.145559
     19          6           0       -0.400216   -2.763559   -0.317971
     20          6           0        0.808625   -1.353072   -2.323487
     21          1           0       -1.188908   -0.730802   -2.780254
     22          6           0        0.958810   -2.836402   -0.429708
     23          1           0       -0.935034   -3.262606    0.482974
     24          6           0        1.630735   -2.048198   -1.393996
     25          1           0        1.239282   -0.788925   -3.140230
     26          1           0        1.496242   -3.412620    0.310322
     27          7           0        2.966962   -1.950117   -1.411951
     28          6           0        3.765813   -2.446342   -0.284536
     29          1           0        3.712789   -3.537306   -0.222355
     30          1           0        3.375021   -2.015236    0.647916
     31          6           0        3.658760   -0.869892   -2.131283
     32          1           0        3.917232   -1.196572   -3.146054
     33          1           0        3.014364    0.011757   -2.180728
     34          7           0       -1.301331   -0.278116    1.013622
     35         16           0       -1.262407   -1.220196    2.280399
     36          8           0       -2.253036   -2.319291    2.249724
     37          8           0        0.136878   -1.667841    2.520195
     38          6           0       -1.132288    2.857329   -0.172489
     39          6           0       -0.404032    2.188969   -1.162412
     40          6           0       -0.929791    2.063828   -2.446563
     41          6           0       -2.195903    2.565284   -2.749355
     42          6           0       -2.933490    3.208343   -1.757453
     43          6           0       -2.398357    3.355174   -0.479796
     44          1           0        0.549549    1.730594   -0.906173
     45          1           0       -0.348100    1.564368   -3.218118
     46          1           0       -2.605869    2.457458   -3.749227
     47          1           0       -3.925377    3.593578   -1.975363
     48          1           0       -2.975476    3.852664    0.296782
     49          8           0        0.219123    1.929172    1.618346
     50          1           0       -0.280785    1.102001    1.353848
     51          6           0        2.437332    0.655858    1.228173
     52          8           0        2.125925    0.214218    0.135218
     53          8           0        2.199926    0.030532    2.369033
     54          1           0        1.505296   -0.675542    2.251661
     55          6           0        3.192739    1.949806    1.421304
     56          1           0        2.717680    2.474674    2.255194
     57          1           0        4.215300    1.703188    1.741406
     58          6           0       -0.563303    3.018205    1.222156
     59          1           0       -1.392028    3.207659    1.924827
     60          1           0        0.084896    3.905831    1.252380
     61          6           0       -1.643782   -0.197423    3.699515
     62          1           0       -0.944928    0.642534    3.684990
     63          1           0       -2.672336    0.154714    3.599214
     64          1           0       -1.523714   -0.791183    4.606672
     65          6           0        3.205090    2.810425    0.164782
     66          1           0        3.630089    2.237834   -0.668619
     67          1           0        2.168158    3.028651   -0.114231
     68          6           0        3.979978    4.109967    0.359672
     69          1           0        3.987141    4.709947   -0.554904
     70          1           0        3.532859    4.715872    1.154734
     71          1           0        5.020414    3.911979    0.639825
     72          6           0        5.171472   -1.936893   -0.591025
     73          1           0        5.775075   -1.840043    0.313604
     74          1           0        5.681381   -2.624047   -1.274053
     75          6           0        4.901019   -0.596566   -1.278880
     76          1           0        4.649143    0.158746   -0.528871
     77          1           0        5.742819   -0.234869   -1.872876
 ---------------------------------------------------------------------

 SCF Done:  E(RM062X) =  -1991.38934345     A.U. after   15 cycles

 The electronic state is 1-A.
 Alpha  occ. eigenvalues --  -90.10364 -19.63374 -19.60089 -19.59264 -19.58585
 Alpha  occ. eigenvalues --  -19.58353 -14.84806 -14.80509 -14.69396 -10.65462
 Alpha  occ. eigenvalues --  -10.63233 -10.62399 -10.61510 -10.59142 -10.59079
 Alpha  occ. eigenvalues --  -10.59042 -10.57822 -10.57422 -10.56828 -10.56653
 Alpha  occ. eigenvalues --  -10.56048 -10.55755 -10.55512 -10.54970 -10.54916
 Alpha  occ. eigenvalues --  -10.54863 -10.54585 -10.54546 -10.54494 -10.53767
 Alpha  occ. eigenvalues --  -10.53723 -10.53559 -10.53158 -10.53046 -10.52624
 Alpha  occ. eigenvalues --  -10.52580  -8.41329  -6.33567  -6.33474  -6.33394
 Alpha  occ. eigenvalues --   -1.19120  -1.17898  -1.12940  -1.10293  -1.09849
 Alpha  occ. eigenvalues --   -1.09145  -1.06163  -0.97540  -0.95258  -0.94805
 Alpha  occ. eigenvalues --   -0.92186  -0.89854  -0.88585  -0.88056  -0.85016
 Alpha  occ. eigenvalues --   -0.84950  -0.83649  -0.83504  -0.83301  -0.80191
 Alpha  occ. eigenvalues --   -0.79136  -0.76354  -0.75658  -0.74678  -0.70940
 Alpha  occ. eigenvalues --   -0.70191  -0.69083  -0.68721  -0.68360  -0.68005
 Alpha  occ. eigenvalues --   -0.65793  -0.64724  -0.63944  -0.63426  -0.61627
 Alpha  occ. eigenvalues --   -0.60269  -0.59394  -0.58978  -0.58356  -0.56169
 Alpha  occ. eigenvalues --   -0.55450  -0.55162  -0.55061  -0.54079  -0.53681
 Alpha  occ. eigenvalues --   -0.53439  -0.53076  -0.52394  -0.51966  -0.51721
 Alpha  occ. eigenvalues --   -0.51143  -0.50993  -0.50610  -0.50170  -0.49829
 Alpha  occ. eigenvalues --   -0.49602  -0.49481  -0.48834  -0.48352  -0.47998
 Alpha  occ. eigenvalues --   -0.47778  -0.47170  -0.46978  -0.46948  -0.45935
 Alpha  occ. eigenvalues --   -0.45826  -0.45243  -0.43952  -0.43649  -0.43421
 Alpha  occ. eigenvalues --   -0.42762  -0.42469  -0.42244  -0.41927  -0.41897
 Alpha  occ. eigenvalues --   -0.41157  -0.40849  -0.40568  -0.39915  -0.39527
 Alpha  occ. eigenvalues --   -0.39365  -0.39202  -0.38766  -0.38380  -0.37853
 Alpha  occ. eigenvalues --   -0.37328  -0.36232  -0.35879  -0.35361  -0.35113
 Alpha  occ. eigenvalues --   -0.34394  -0.33123  -0.32085  -0.31712  -0.31501
 Alpha  occ. eigenvalues --   -0.29850  -0.28887  -0.28318  -0.27479  -0.25411
 Alpha virt. eigenvalues --   -0.01023   0.00649   0.03302   0.03795   0.09082
 Alpha virt. eigenvalues --    0.10148   0.10919   0.11793   0.12996   0.13478
 Alpha virt. eigenvalues --    0.13856   0.14241   0.15118   0.15497   0.15758

 Mulliken charges:
               1
     1  C   -0.303930
     2  C   -0.304186
     3  C   -0.309705
     4  C   -0.073369
     5  C    0.062409
     6  C   -0.305173
     7  H    0.165948
     8  H    0.160919
     9  H    0.159139
    10  H    0.146360
    11  H    0.156667
    12  H    0.212902
    13  H    0.141497
    14  H    0.179504
    15  H    0.149291
    16  H    0.150779
    17  N   -0.424431
    18  C    0.100109
    19  C    0.083975
    20  C   -0.227843
    21  H    0.205142
    22  C   -0.227042
    23  H    0.264263
    24  C    0.428324
    25  H    0.188208
    26  H    0.206953
    27  N   -0.528958
    28  C   -0.157550
    29  H    0.178387
    30  H    0.199283
    31  C   -0.147104
    32  H    0.169546
    33  H    0.195959
    34  N   -0.755355
    35  S    1.249460
    36  O   -0.646821
    37  O   -0.670450
    38  C    0.048743
    39  C   -0.177138
    40  C   -0.187064
    41  C   -0.169939
    42  C   -0.162130
    43  C   -0.197860
    44  H    0.203074
    45  H    0.139302
    46  H    0.156401
    47  H    0.161825
    48  H    0.156715
    49  O   -0.711920
    50  H    0.481210
    51  C    0.646936
    52  O   -0.523200
    53  O   -0.645159
    54  H    0.485725
    55  C   -0.367618
    56  H    0.200532
    57  H    0.164046
    58  C   -0.067413
    59  H    0.128414
    60  H    0.158255
    61  C   -0.656514
    62  H    0.219188
    63  H    0.188058
    64  H    0.207922
    65  C   -0.287142
    66  H    0.143520
    67  H    0.166388
    68  C   -0.480375
    69  H    0.158458
    70  H    0.158536
    71  H    0.150150
    72  C   -0.337338
    73  H    0.184107
    74  H    0.170039
    75  C   -0.335708
    76  H    0.182596
    77  H    0.173270
 Sum of Mulliken charges =  -0.00000

 Dipole moment (field-independent basis, Debye):
    X=              1.5518    Y=             -0.3941    Z=             -6.5168  Tot=              6.7106
 Quadrupole moment (field-independent basis, Debye-Ang):
   XX=           -198.1063   YY=           -223.2093   ZZ=           -221.8565
   XY=            -12.0215   XZ=             -1.2036   YZ=             12.3772

 Normal termination of Gaussian 16 at Fri Feb  8 00:33:37 2019.
