 Gaussian 16, Revision A.03,
 Gaussian 16:  ES64L-G16RevA.03 25-Dec-2016

 ------------------------------------------
 #p M062X/6-31G* em=gd3 force int=ultrafine
 ------------------------------------------

 -----
 Title
 -----
 Symbolic Z-matrix:
 Charge =  0 Multiplicity = 1

                         Standard orientation:
 ---------------------------------------------------------------------
 Center     Atomic      Atomic             Coordinates (Angstroms)
 Number     Number       Type             X           Y           Z
 ---------------------------------------------------------------------
      1          6           0       -4.853687    0.539494   -0.530139
      2          6           0       -5.030628   -0.737525   -1.356701
      3          6           0       -3.691074   -1.195949   -1.945803
      4          6           0       -2.702115   -1.436851   -0.809578
      5          6           0       -2.496070   -0.144866    0.017795
      6          6           0       -3.830159    0.342687    0.591247
      7          1           0       -3.807522   -2.105831   -2.544069
      8          1           0       -5.439113   -1.534140   -0.721124
      9          1           0       -5.749174   -0.573774   -2.165829
     10          1           0       -4.509646    1.348973   -1.188487
     11          1           0       -5.814424    0.852901   -0.109297
     12          1           0       -3.093956   -2.216160   -0.147833
     13          1           0       -2.137907    0.622577   -0.680779
     14          1           0       -4.201404   -0.383354    1.322705
     15          1           0       -3.646394    1.288428    1.113893
     16          1           0       -3.320492   -0.402271   -2.608385
     17          7           0       -1.373123   -1.911519   -1.250704
     18          6           0       -0.686808   -1.246250   -2.217664
     19          6           0       -0.680309   -2.725777   -0.411209
     20          6           0        0.663841   -1.343897   -2.351657
     21          1           0       -1.273759   -0.605507   -2.862984
     22          6           0        0.671976   -2.862889   -0.472790
     23          1           0       -1.266968   -3.222201    0.353965
     24          6           0        1.422981   -2.085490   -1.397261
     25          1           0        1.152082   -0.786344   -3.139878
     26          1           0        1.154352   -3.481640    0.270560
     27          7           0        2.750608   -2.062252   -1.373310
     28          6           0        3.488337   -2.585087   -0.212332
     29          1           0        3.341326   -3.664533   -0.114863
     30          1           0        3.122754   -2.063213    0.683265
     31          6           0        3.524432   -1.018316   -2.067606
     32          1           0        3.779079   -1.355051   -3.080326
     33          1           0        2.935872   -0.099008   -2.101208
     34          7           0       -1.412719   -0.283502    0.974388
     35         16           0       -1.438497   -1.174677    2.339175
     36          8           0       -2.669159   -1.968375    2.314985
     37          8           0       -0.164062   -1.880999    2.472860
     38          6           0       -0.531963    2.684077   -0.063825
     39          6           0       -0.033247    2.070525   -1.220828
     40          6           0       -0.743146    2.154441   -2.418178
     41          6           0       -1.965687    2.823332   -2.479681
     42          6           0       -2.474542    3.420941   -1.328002
     43          6           0       -1.757510    3.352346   -0.133847
     44          1           0        0.887052    1.490782   -1.140147
     45          1           0       -0.334048    1.694749   -3.315868
     46          1           0       -2.513690    2.885055   -3.415803
     47          1           0       -3.426949    3.942843   -1.359744
     48          1           0       -2.159686    3.823044    0.761118
     49          8           0        0.661418    1.357125    1.647249
     50          1           0       -0.539810    0.268790    0.886968
     51          6           0        2.053035    0.729721    1.188025
     52          8           0        1.925228    0.178547    0.034530
     53          8           0        2.252163   -0.155668    2.266819
     54          1           0        1.566757   -0.841368    2.168131
     55          6           0        3.119572    1.830692    1.336785
     56          1           0        2.869259    2.489773    2.177549
     57          1           0        4.045729    1.315863    1.623969
     58          6           0        0.231383    2.629195    1.254728
     59          1           0       -0.441210    3.005542    2.041493
     60          1           0        1.071346    3.337864    1.214162
     61          6           0       -1.484287    0.016720    3.659479
     62          1           0       -0.601120    0.647585    3.517073
     63          1           0       -2.408895    0.590047    3.577396
     64          1           0       -1.438931   -0.525362    4.605307
     65          6           0        3.375495    2.631544    0.062214
     66          1           0        3.707689    1.943931   -0.723861
     67          1           0        2.446086    3.072784   -0.316964
     68          6           0        4.411429    3.732349    0.277112
     69          1           0        4.615957    4.284184   -0.645607
     70          1           0        4.066074    4.451858    1.028084
     71          1           0        5.357885    3.313810    0.637207
     72          6           0        4.931580   -2.201496   -0.516906
     73          1           0        5.540613   -2.163589    0.388168
     74          1           0        5.379975   -2.922174   -1.210075
     75          6           0        4.759761   -0.836023   -1.183517
     76          1           0        4.513114   -0.093694   -0.419173
     77          1           0        5.634464   -0.507362   -1.748835
 ---------------------------------------------------------------------

 SCF Done:  E(RM062X) =  -1991.35555584     A.U. after   15 cycles

 The electronic state is 1-A.
 Alpha  occ. eigenvalues --  -90.14708 -19.62359 -19.62049 -19.58530 -19.57145
 Alpha  occ. eigenvalues --  -19.50791 -14.85173 -14.80045 -14.76407 -10.63156
 Alpha  occ. eigenvalues --  -10.62605 -10.62307 -10.62120 -10.61072 -10.59850
 Alpha  occ. eigenvalues --  -10.57775 -10.57755 -10.57652 -10.57021 -10.56968
 Alpha  occ. eigenvalues --  -10.56875 -10.56373 -10.55864 -10.55122 -10.55076
 Alpha  occ. eigenvalues --  -10.55043 -10.54888 -10.54687 -10.54682 -10.54668
 Alpha  occ. eigenvalues --  -10.54448 -10.54054 -10.53122 -10.51109 -10.51003
 Alpha  occ. eigenvalues --  -10.49615  -8.45681  -6.37908  -6.37857  -6.37732
 Alpha  occ. eigenvalues --   -1.22502  -1.13445  -1.12814  -1.10704  -1.08879
 Alpha  occ. eigenvalues --   -1.05993  -1.02386  -1.00212  -0.95820  -0.95216
 Alpha  occ. eigenvalues --   -0.93468  -0.90111  -0.88567  -0.86517  -0.85391
 Alpha  occ. eigenvalues --   -0.84905  -0.84848  -0.83719  -0.83315  -0.83045
 Alpha  occ. eigenvalues --   -0.76562  -0.76020  -0.75551  -0.74190  -0.73241
 Alpha  occ. eigenvalues --   -0.71748  -0.68230  -0.68133  -0.67748  -0.67484
 Alpha  occ. eigenvalues --   -0.66418  -0.65484  -0.64881  -0.63329  -0.60524
 Alpha  occ. eigenvalues --   -0.60377  -0.59950  -0.59400  -0.57949  -0.57685
 Alpha  occ. eigenvalues --   -0.57150  -0.56378  -0.55645  -0.55069  -0.54382
 Alpha  occ. eigenvalues --   -0.53552  -0.53059  -0.52659  -0.52448  -0.52164
 Alpha  occ. eigenvalues --   -0.51674  -0.50819  -0.50127  -0.49926  -0.49369
 Alpha  occ. eigenvalues --   -0.49241  -0.48920  -0.48505  -0.48196  -0.48026
 Alpha  occ. eigenvalues --   -0.47707  -0.47643  -0.47159  -0.46204  -0.45830
 Alpha  occ. eigenvalues --   -0.45335  -0.45176  -0.44391  -0.44063  -0.43187
 Alpha  occ. eigenvalues --   -0.42466  -0.42335  -0.41200  -0.40874  -0.40751
 Alpha  occ. eigenvalues --   -0.40662  -0.40398  -0.40147  -0.39842  -0.39424
 Alpha  occ. eigenvalues --   -0.39116  -0.38915  -0.38713  -0.38302  -0.37761
 Alpha  occ. eigenvalues --   -0.37445  -0.36521  -0.36442  -0.36039  -0.35033
 Alpha  occ. eigenvalues --   -0.34565  -0.34299  -0.31848  -0.31297  -0.30016
 Alpha  occ. eigenvalues --   -0.29278  -0.28812  -0.27778  -0.24410  -0.24065
 Alpha virt. eigenvalues --   -0.01233   0.00583   0.03206   0.03582   0.10164
 Alpha virt. eigenvalues --    0.10592   0.11352   0.12563   0.13166   0.13328
 Alpha virt. eigenvalues --    0.14152   0.14417   0.15068   0.15533   0.15535

 Mulliken charges:
               1
     1  C   -0.306544
     2  C   -0.307793
     3  C   -0.311356
     4  C   -0.060578
     5  C    0.065434
     6  C   -0.306834
     7  H    0.175435
     8  H    0.163254
     9  H    0.166748
    10  H    0.151530
    11  H    0.164881
    12  H    0.207523
    13  H    0.174394
    14  H    0.192293
    15  H    0.160432
    16  H    0.156531
    17  N   -0.437294
    18  C    0.080221
    19  C    0.080903
    20  C   -0.210649
    21  H    0.202810
    22  C   -0.221240
    23  H    0.243805
    24  C    0.448919
    25  H    0.192051
    26  H    0.209714
    27  N   -0.518274
    28  C   -0.164601
    29  H    0.167158
    30  H    0.220406
    31  C   -0.145201
    32  H    0.160404
    33  H    0.205395
    34  N   -0.812250
    35  S    1.237599
    36  O   -0.603850
    37  O   -0.591666
    38  C    0.049286
    39  C   -0.197188
    40  C   -0.192671
    41  C   -0.172519
    42  C   -0.165221
    43  C   -0.205301
    44  H    0.235202
    45  H    0.141316
    46  H    0.156258
    47  H    0.159869
    48  H    0.154367
    49  O   -0.602597
    50  H    0.451189
    51  C    0.714695
    52  O   -0.685569
    53  O   -0.701259
    54  H    0.432642
    55  C   -0.339913
    56  H    0.144149
    57  H    0.150984
    58  C   -0.079338
    59  H    0.130208
    60  H    0.156196
    61  C   -0.666427
    62  H    0.266911
    63  H    0.200339
    64  H    0.223099
    65  C   -0.285096
    66  H    0.142879
    67  H    0.140645
    68  C   -0.475135
    69  H    0.148393
    70  H    0.149099
    71  H    0.148750
    72  C   -0.334148
    73  H    0.184269
    74  H    0.160068
    75  C   -0.338477
    76  H    0.205588
    77  H    0.164747
 Sum of Mulliken charges =  -0.00000

 Dipole moment (field-independent basis, Debye):
    X=             -3.5398    Y=             -1.4903    Z=             -5.7171  Tot=              6.8874
 Quadrupole moment (field-independent basis, Debye-Ang):
   XX=           -208.4731   YY=           -222.6640   ZZ=           -218.1577
   XY=            -13.4998   XZ=             -4.2107   YZ=             10.7889

 Normal termination of Gaussian 16 at Thu Feb  7 09:34:17 2019.
