 Gaussian 16, Revision A.03,
 Gaussian 16:  ES64L-G16RevA.03 25-Dec-2016

 ------------------------------------------
 #p M062X/6-31G* em=gd3 force int=ultrafine
 ------------------------------------------

 -----
 Title
 -----
 Symbolic Z-matrix:
 Charge =  0 Multiplicity = 1

                         Standard orientation:
 ---------------------------------------------------------------------
 Center     Atomic      Atomic             Coordinates (Angstroms)
 Number     Number       Type             X           Y           Z
 ---------------------------------------------------------------------
      1          6           0       -4.841730    0.497587   -0.520400
      2          6           0       -5.004249   -0.771483   -1.362080
      3          6           0       -3.658569   -1.209982   -1.952410
      4          6           0       -2.671469   -1.455162   -0.815550
      5          6           0       -2.477960   -0.171192    0.027590
      6          6           0       -3.819140    0.297728    0.601460
      7          1           0       -3.764699   -2.113642   -2.562080
      8          1           0       -5.406789   -1.579443   -0.737080
      9          1           0       -5.721899   -0.605403   -2.171560
     10          1           0       -4.503230    1.317607   -1.168540
     11          1           0       -5.806760    0.797217   -0.099260
     12          1           0       -3.058309   -2.245732   -0.164520
     13          1           0       -2.126110    0.606258   -0.663290
     14          1           0       -4.185359   -0.439833    1.324240
     15          1           0       -3.646070    1.239858    1.134540
     16          1           0       -3.293819   -0.404392   -2.603810
     17          7           0       -1.336909   -1.914161   -1.258680
     18          6           0       -0.657419   -1.238481   -2.221680
     19          6           0       -0.638158   -2.728561   -0.425390
     20          6           0        0.694101   -1.327660   -2.359780
     21          1           0       -1.249389   -0.596331   -2.860870
     22          6           0        0.715272   -2.858560   -0.491780
     23          1           0       -1.220288   -3.232901    0.338110
     24          6           0        1.458991   -2.072790   -1.413930
     25          1           0        1.176831   -0.762440   -3.145940
     26          1           0        1.202652   -3.479830    0.246270
     27          7           0        2.788051   -2.040849   -1.392260
     28          6           0        3.530762   -2.569639   -0.237710
     29          1           0        3.395422   -3.651729   -0.153300
     30          1           0        3.158711   -2.066339    0.665720
     31          6           0        3.554001   -0.986969   -2.080140
     32          1           0        3.811691   -1.315379   -3.094740
     33          1           0        2.959170   -0.071489   -2.111690
     34          7           0       -1.390790   -0.317551    0.978650
     35         16           0       -1.428009   -1.220231    2.332310
     36          8           0       -2.634979   -2.049972    2.282540
     37          8           0       -0.138089   -1.897551    2.484800
     38          6           0       -0.599411    2.716879   -0.064210
     39          6           0       -0.070631    2.084159   -1.197020
     40          6           0       -0.746311    2.151639   -2.414680
     41          6           0       -1.969131    2.815738   -2.517160
     42          6           0       -2.509861    3.428138   -1.388050
     43          6           0       -1.823461    3.381129   -0.174890
     44          1           0        0.847280    1.505300   -1.087250
     45          1           0       -0.313190    1.680899   -3.295230
     46          1           0       -2.493131    2.861788   -3.467730
     47          1           0       -3.463862    3.944228   -1.451950
     48          1           0       -2.249771    3.861788    0.703460
     49          8           0        0.568530    1.375930    1.621000
     50          1           0       -0.562460    0.334129    0.980610
     51          6           0        2.087380    0.713910    1.196050
     52          8           0        1.982370    0.176500    0.053390
     53          8           0        2.210410   -0.136170    2.291520
     54          1           0        1.541811   -0.835770    2.168920
     55          6           0        3.078999    1.865601    1.388210
     56          1           0        2.760439    2.501721    2.221980
     57          1           0        4.022820    1.400621    1.704660
     58          6           0        0.130949    2.651069    1.271430
     59          1           0       -0.563131    3.014349    2.049350
     60          1           0        0.963909    3.372750    1.259570
     61          6           0       -1.523620   -0.040661    3.661680
     62          1           0       -0.664140    0.623579    3.523250
     63          1           0       -2.467830    0.499828    3.578620
     64          1           0       -1.461249   -0.584041    4.605650
     65          6           0        3.326649    2.681591    0.122790
     66          1           0        3.693689    2.010371   -0.662230
     67          1           0        2.385829    3.090981   -0.263210
     68          6           0        4.321299    3.815381    0.358160
     69          1           0        4.514038    4.382442   -0.557710
     70          1           0        3.944718    4.515041    1.112650
     71          1           0        5.278889    3.426262    0.721850
     72          6           0        4.970591   -2.167568   -0.535870
     73          1           0        5.577271   -2.129698    0.370800
     74          1           0        5.428112   -2.879108   -1.232300
     75          6           0        4.788391   -0.799738   -1.195380
     76          1           0        4.539730   -0.060758   -0.428450
     77          1           0        5.660621   -0.463648   -1.760070
 ---------------------------------------------------------------------

 SCF Done:  E(RM062X) =  -1991.35531959     A.U. after   15 cycles

 The electronic state is 1-A.
 Alpha  occ. eigenvalues --  -90.14378 -19.62120 -19.61787 -19.58076 -19.57228
 Alpha  occ. eigenvalues --  -19.52227 -14.85211 -14.80187 -14.75756 -10.63253
 Alpha  occ. eigenvalues --  -10.62891 -10.62656 -10.62158 -10.60959 -10.59595
 Alpha  occ. eigenvalues --  -10.58020 -10.57931 -10.57830 -10.57039 -10.56776
 Alpha  occ. eigenvalues --  -10.56469 -10.56176 -10.55758 -10.54974 -10.54940
 Alpha  occ. eigenvalues --  -10.54905 -10.54898 -10.54785 -10.54530 -10.54481
 Alpha  occ. eigenvalues --  -10.54316 -10.54162 -10.53075 -10.51261 -10.51210
 Alpha  occ. eigenvalues --  -10.50069  -8.45365  -6.37588  -6.37536  -6.37420
 Alpha  occ. eigenvalues --   -1.22192  -1.13468  -1.13023  -1.10390  -1.09018
 Alpha  occ. eigenvalues --   -1.05524  -1.01976  -1.01800  -0.95760  -0.95018
 Alpha  occ. eigenvalues --   -0.93476  -0.90156  -0.88635  -0.86300  -0.85709
 Alpha  occ. eigenvalues --   -0.84778  -0.84528  -0.83942  -0.83186  -0.82842
 Alpha  occ. eigenvalues --   -0.76609  -0.76376  -0.75639  -0.73455  -0.73027
 Alpha  occ. eigenvalues --   -0.71684  -0.68225  -0.68041  -0.67830  -0.67359
 Alpha  occ. eigenvalues --   -0.66454  -0.65348  -0.64751  -0.63354  -0.60476
 Alpha  occ. eigenvalues --   -0.60310  -0.59849  -0.59397  -0.57873  -0.57695
 Alpha  occ. eigenvalues --   -0.57196  -0.56337  -0.55499  -0.54805  -0.54196
 Alpha  occ. eigenvalues --   -0.53488  -0.52864  -0.52525  -0.52245  -0.51818
 Alpha  occ. eigenvalues --   -0.51551  -0.51030  -0.50325  -0.50021  -0.49544
 Alpha  occ. eigenvalues --   -0.49146  -0.48901  -0.48424  -0.48134  -0.48091
 Alpha  occ. eigenvalues --   -0.47744  -0.47461  -0.47011  -0.46629  -0.45979
 Alpha  occ. eigenvalues --   -0.45249  -0.45122  -0.44551  -0.44140  -0.43187
 Alpha  occ. eigenvalues --   -0.42467  -0.42291  -0.41239  -0.41098  -0.40875
 Alpha  occ. eigenvalues --   -0.40518  -0.40448  -0.40140  -0.40003  -0.39484
 Alpha  occ. eigenvalues --   -0.39137  -0.38956  -0.38632  -0.38122  -0.37727
 Alpha  occ. eigenvalues --   -0.37462  -0.36750  -0.36522  -0.35842  -0.35072
 Alpha  occ. eigenvalues --   -0.34785  -0.34270  -0.32243  -0.30866  -0.29812
 Alpha  occ. eigenvalues --   -0.28778  -0.28533  -0.27879  -0.25448  -0.24667
 Alpha virt. eigenvalues --   -0.01298   0.00519   0.03338   0.03814   0.10215
 Alpha virt. eigenvalues --    0.10715   0.11460   0.12423   0.13253   0.13355
 Alpha virt. eigenvalues --    0.14175   0.14430   0.15174   0.15504   0.15581

 Mulliken charges:
               1
     1  C   -0.306735
     2  C   -0.307597
     3  C   -0.311614
     4  C   -0.062121
     5  C    0.066706
     6  C   -0.306861
     7  H    0.174594
     8  H    0.163023
     9  H    0.166296
    10  H    0.152342
    11  H    0.164283
    12  H    0.208608
    13  H    0.173218
    14  H    0.190524
    15  H    0.160105
    16  H    0.156769
    17  N   -0.435733
    18  C    0.084195
    19  C    0.084819
    20  C   -0.213982
    21  H    0.203684
    22  C   -0.223372
    23  H    0.245875
    24  C    0.445794
    25  H    0.192214
    26  H    0.209463
    27  N   -0.519454
    28  C   -0.162522
    29  H    0.168948
    30  H    0.216433
    31  C   -0.145682
    32  H    0.162197
    33  H    0.204443
    34  N   -0.816714
    35  S    1.238425
    36  O   -0.606608
    37  O   -0.597820
    38  C    0.050918
    39  C   -0.198845
    40  C   -0.192245
    41  C   -0.173457
    42  C   -0.164419
    43  C   -0.205714
    44  H    0.231851
    45  H    0.139554
    46  H    0.155406
    47  H    0.159221
    48  H    0.154327
    49  O   -0.630892
    50  H    0.454107
    51  C    0.702225
    52  O   -0.652282
    53  O   -0.689371
    54  H    0.440604
    55  C   -0.338011
    56  H    0.152872
    57  H    0.150610
    58  C   -0.066304
    59  H    0.120374
    60  H    0.146532
    61  C   -0.668249
    62  H    0.265492
    63  H    0.199801
    64  H    0.222226
    65  C   -0.286796
    66  H    0.143201
    67  H    0.145116
    68  C   -0.475820
    69  H    0.149762
    70  H    0.150556
    71  H    0.148688
    72  C   -0.334725
    73  H    0.184440
    74  H    0.161621
    75  C   -0.337917
    76  H    0.203377
    77  H    0.166022
 Sum of Mulliken charges =  -0.00000

 Dipole moment (field-independent basis, Debye):
    X=             -2.8722    Y=             -1.6524    Z=             -5.8313  Tot=              6.7070
 Quadrupole moment (field-independent basis, Debye-Ang):
   XX=           -206.4541   YY=           -223.6728   ZZ=           -218.3389
   XY=            -13.3813   XZ=             -4.1109   YZ=             10.6940

 Normal termination of Gaussian 16 at Thu Feb  7 08:32:34 2019.
