 Gaussian 16, Revision A.03,
 Gaussian 16:  ES64L-G16RevA.03 25-Dec-2016

 ------------------------------------------
 #p M062X/6-31G* em=gd3 force int=ultrafine
 ------------------------------------------

 -----
 Title
 -----
 Symbolic Z-matrix:
 Charge =  0 Multiplicity = 1

                         Standard orientation:
 ---------------------------------------------------------------------
 Center     Atomic      Atomic             Coordinates (Angstroms)
 Number     Number       Type             X           Y           Z
 ---------------------------------------------------------------------
      1          6           0       -4.863024    0.516587   -0.551225
      2          6           0       -5.033495   -0.774276   -1.357352
      3          6           0       -3.691688   -1.235258   -1.939075
      4          6           0       -2.701394   -1.451270   -0.799041
      5          6           0       -2.501589   -0.144741    0.006664
      6          6           0       -3.838309    0.343521    0.573096
      7          1           0       -3.803176   -2.156039   -2.521393
      8          1           0       -5.437757   -1.562771   -0.709058
      9          1           0       -5.753042   -0.627201   -2.168781
     10          1           0       -4.523930    1.317374   -1.222586
     11          1           0       -5.825314    0.831279   -0.134897
     12          1           0       -3.089557   -2.220928   -0.123933
     13          1           0       -2.148276    0.613965   -0.703632
     14          1           0       -4.205450   -0.373399    1.315358
     15          1           0       -3.660396    1.298073    1.081248
     16          1           0       -3.325334   -0.451507   -2.615665
     17          7           0       -1.370607   -1.927208   -1.232026
     18          6           0       -0.684217   -1.271442   -2.205821
     19          6           0       -0.677935   -2.731515   -0.382930
     20          6           0        0.666486   -1.369261   -2.337459
     21          1           0       -1.271475   -0.638298   -2.858477
     22          6           0        0.674444   -2.867168   -0.441305
     23          1           0       -1.264829   -3.219713    0.387329
     24          6           0        1.425319   -2.098369   -1.373027
     25          1           0        1.155050   -0.819433   -3.130808
     26          1           0        1.157037   -3.476593    0.309531
     27          7           0        2.752681   -2.072218   -1.346250
     28          6           0        3.488186   -2.578431   -0.176248
     29          1           0        3.344509   -3.657117   -0.066191
     30          1           0        3.118048   -2.046410    0.711586
     31          6           0        3.525195   -1.033661   -2.049725
     32          1           0        3.785384   -1.381164   -3.057363
     33          1           0        2.932543   -0.117568   -2.096200
     34          7           0       -1.418866   -0.257650    0.967570
     35         16           0       -1.435035   -1.130543    2.345204
     36          8           0       -2.668483   -1.919926    2.339825
     37          8           0       -0.161924   -1.838733    2.480137
     38          6           0       -0.529861    2.675005   -0.068716
     39          6           0       -0.041970    2.073396   -1.236944
     40          6           0       -0.771827    2.152560   -2.422696
     41          6           0       -2.002494    2.807948   -2.463178
     42          6           0       -2.500127    3.395064   -1.301353
     43          6           0       -1.764160    3.329112   -0.118637
     44          1           0        0.885754    1.504535   -1.173205
     45          1           0       -0.371099    1.700865   -3.328134
     46          1           0       -2.565492    2.866960   -3.390553
     47          1           0       -3.458533    3.906662   -1.316019
     48          1           0       -2.158038    3.792153    0.783984
     49          8           0        0.686429    1.375757    1.661433
     50          1           0       -0.527360    0.248533    0.833519
     51          6           0        2.043474    0.744232    1.173897
     52          8           0        1.883223    0.184687    0.024072
     53          8           0        2.272870   -0.142623    2.249632
     54          1           0        1.573912   -0.817824    2.177326
     55          6           0        3.132044    1.830496    1.287751
     56          1           0        2.908706    2.502944    2.125706
     57          1           0        4.054959    1.304118    1.564016
     58          6           0        0.252961    2.638200    1.240241
     59          1           0       -0.408431    3.030538    2.027895
     60          1           0        1.093445    3.344075    1.174709
     61          6           0       -1.471532    0.078376    3.649062
     62          1           0       -0.584601    0.701661    3.497713
     63          1           0       -2.392892    0.655794    3.559767
     64          1           0       -1.429613   -0.452452    4.601448
     65          6           0        3.379732    2.615135    0.001513
     66          1           0        3.671236    1.912832   -0.787738
     67          1           0        2.455556    3.082990   -0.358113
     68          6           0        4.454075    3.684811    0.183005
     69          1           0        4.651721    4.225094   -0.748028
     70          1           0        4.150579    4.418681    0.938091
     71          1           0        5.396128    3.239057    0.521440
     72          6           0        4.931112   -2.193485   -0.480301
     73          1           0        5.536476   -2.142471    0.426591
     74          1           0        5.384856   -2.920363   -1.163425
     75          6           0        4.756250   -0.836443   -1.162963
     76          1           0        4.504226   -0.087060   -0.407337
     77          1           0        5.631698   -0.509699   -1.728254
 ---------------------------------------------------------------------

 SCF Done:  E(RM062X) =  -1991.35569055     A.U. after   15 cycles

 The electronic state is 1-A.
 Alpha  occ. eigenvalues --  -90.14765 -19.62383 -19.62109 -19.58605 -19.56991
 Alpha  occ. eigenvalues --  -19.50599 -14.85188 -14.80034 -14.76576 -10.63155
 Alpha  occ. eigenvalues --  -10.62613 -10.62188 -10.62129 -10.61085 -10.59885
 Alpha  occ. eigenvalues --  -10.57764 -10.57756 -10.57612 -10.57034 -10.56972
 Alpha  occ. eigenvalues --  -10.56894 -10.56344 -10.55878 -10.55117 -10.55089
 Alpha  occ. eigenvalues --  -10.55035 -10.54877 -10.54683 -10.54679 -10.54647
 Alpha  occ. eigenvalues --  -10.54465 -10.54055 -10.53120 -10.51098 -10.50988
 Alpha  occ. eigenvalues --  -10.49549  -8.45735  -6.37963  -6.37913  -6.37782
 Alpha  occ. eigenvalues --   -1.22551  -1.13464  -1.12846  -1.10757  -1.08874
 Alpha  occ. eigenvalues --   -1.05929  -1.02465  -0.99922  -0.95838  -0.95218
 Alpha  occ. eigenvalues --   -0.93474  -0.90124  -0.88571  -0.86540  -0.85355
 Alpha  occ. eigenvalues --   -0.84935  -0.84855  -0.83704  -0.83305  -0.83069
 Alpha  occ. eigenvalues --   -0.76569  -0.75971  -0.75555  -0.74249  -0.73271
 Alpha  occ. eigenvalues --   -0.71763  -0.68229  -0.68147  -0.67751  -0.67491
 Alpha  occ. eigenvalues --   -0.66437  -0.65490  -0.64872  -0.63342  -0.60507
 Alpha  occ. eigenvalues --   -0.60380  -0.59954  -0.59425  -0.57933  -0.57690
 Alpha  occ. eigenvalues --   -0.57156  -0.56399  -0.55681  -0.55100  -0.54382
 Alpha  occ. eigenvalues --   -0.53562  -0.53082  -0.52680  -0.52475  -0.52166
 Alpha  occ. eigenvalues --   -0.51689  -0.50803  -0.50143  -0.49918  -0.49352
 Alpha  occ. eigenvalues --   -0.49236  -0.48949  -0.48481  -0.48176  -0.48008
 Alpha  occ. eigenvalues --   -0.47726  -0.47632  -0.47164  -0.46163  -0.45808
 Alpha  occ. eigenvalues --   -0.45261  -0.45161  -0.44386  -0.43996  -0.43196
 Alpha  occ. eigenvalues --   -0.42476  -0.42324  -0.41170  -0.40878  -0.40761
 Alpha  occ. eigenvalues --   -0.40674  -0.40401  -0.40113  -0.39838  -0.39403
 Alpha  occ. eigenvalues --   -0.39163  -0.38890  -0.38671  -0.38326  -0.37812
 Alpha  occ. eigenvalues --   -0.37407  -0.36504  -0.36438  -0.36067  -0.35018
 Alpha  occ. eigenvalues --   -0.34538  -0.34281  -0.31761  -0.31363  -0.30018
 Alpha  occ. eigenvalues --   -0.29271  -0.28827  -0.27756  -0.24242  -0.23955
 Alpha virt. eigenvalues --   -0.01228   0.00578   0.03211   0.03558   0.10148
 Alpha virt. eigenvalues --    0.10591   0.11332   0.12563   0.13171   0.13309
 Alpha virt. eigenvalues --    0.14141   0.14435   0.15043   0.15517   0.15549

 Mulliken charges:
               1
     1  C   -0.306429
     2  C   -0.307800
     3  C   -0.311006
     4  C   -0.060169
     5  C    0.064415
     6  C   -0.306917
     7  H    0.175544
     8  H    0.163264
     9  H    0.166792
    10  H    0.151061
    11  H    0.164979
    12  H    0.207071
    13  H    0.174876
    14  H    0.192945
    15  H    0.160923
    16  H    0.156264
    17  N   -0.437457
    18  C    0.078740
    19  C    0.079319
    20  C   -0.208786
    21  H    0.202990
    22  C   -0.220407
    23  H    0.243291
    24  C    0.449570
    25  H    0.192024
    26  H    0.209744
    27  N   -0.518438
    28  C   -0.165947
    29  H    0.166927
    30  H    0.221786
    31  C   -0.145765
    32  H    0.160355
    33  H    0.205507
    34  N   -0.809032
    35  S    1.238713
    36  O   -0.603243
    37  O   -0.591428
    38  C    0.050417
    39  C   -0.196261
    40  C   -0.192445
    41  C   -0.172307
    42  C   -0.165414
    43  C   -0.205044
    44  H    0.233402
    45  H    0.141792
    46  H    0.156207
    47  H    0.159792
    48  H    0.154140
    49  O   -0.595938
    50  H    0.449047
    51  C    0.715972
    52  O   -0.692387
    53  O   -0.703729
    54  H    0.432258
    55  C   -0.340531
    56  H    0.143626
    57  H    0.150736
    58  C   -0.081246
    59  H    0.131506
    60  H    0.156205
    61  C   -0.666110
    62  H    0.268613
    63  H    0.200249
    64  H    0.222690
    65  C   -0.285272
    66  H    0.142386
    67  H    0.140308
    68  C   -0.474748
    69  H    0.148131
    70  H    0.149410
    71  H    0.148322
    72  C   -0.333956
    73  H    0.184520
    74  H    0.159927
    75  C   -0.338344
    76  H    0.204768
    77  H    0.165030
 Sum of Mulliken charges =  -0.00000

 Dipole moment (field-independent basis, Debye):
    X=             -3.5947    Y=             -1.5974    Z=             -5.7148  Tot=              6.9377
 Quadrupole moment (field-independent basis, Debye-Ang):
   XX=           -208.6372   YY=           -222.3229   ZZ=           -218.3742
   XY=            -13.3466   XZ=             -4.0784   YZ=             10.7625

 Normal termination of Gaussian 16 at Thu Feb  7 10:18:50 2019.
