 Gaussian 16, Revision A.03,
 Gaussian 16:  ES64L-G16RevA.03 25-Dec-2016

 ------------------------------------------
 #p M062X/6-31G* em=gd3 force int=ultrafine
 ------------------------------------------

 -----
 Title
 -----
 Symbolic Z-matrix:
 Charge =  0 Multiplicity = 1

                         Standard orientation:
 ---------------------------------------------------------------------
 Center     Atomic      Atomic             Coordinates (Angstroms)
 Number     Number       Type             X           Y           Z
 ---------------------------------------------------------------------
      1          6           0       -4.781785    0.421980   -0.536424
      2          6           0       -4.971981   -0.864618   -1.345411
      3          6           0       -3.646215   -1.319584   -1.968145
      4          6           0       -2.631343   -1.533076   -0.851166
      5          6           0       -2.395232   -0.220657   -0.059358
      6          6           0       -3.716994    0.256436    0.552624
      7          1           0       -3.772247   -2.240600   -2.547309
      8          1           0       -5.354231   -1.659122   -0.691113
      9          1           0       -5.716065   -0.714080   -2.133836
     10          1           0       -4.476263    1.229085   -1.215005
     11          1           0       -5.731671    0.724534   -0.083718
     12          1           0       -3.009129   -2.293052   -0.160360
     13          1           0       -2.078975    0.537514   -0.787196
     14          1           0       -4.057388   -0.465927    1.302176
     15          1           0       -3.534204    1.211746    1.056097
     16          1           0       -3.299999   -0.534796   -2.654279
     17          7           0       -1.309713   -2.017085   -1.301680
     18          6           0       -0.625532   -1.333935   -2.257704
     19          6           0       -0.611584   -2.807997   -0.443336
     20          6           0        0.730748   -1.381638   -2.354138
     21          1           0       -1.220297   -0.716529   -2.919638
     22          6           0        0.746062   -2.889449   -0.463082
     23          1           0       -1.200963   -3.315818    0.312503
     24          6           0        1.485780   -2.071673   -1.358659
     25          1           0        1.219585   -0.812193   -3.132912
     26          1           0        1.233020   -3.478892    0.300708
     27          7           0        2.806412   -1.958632   -1.272896
     28          6           0        3.534759   -2.398409   -0.072704
     29          1           0        3.424607   -3.476498    0.072828
     30          1           0        3.130258   -1.850491    0.791152
     31          6           0        3.531148   -0.890612   -1.974724
     32          1           0        3.779859   -1.213055   -2.993250
     33          1           0        2.897841   -0.000013   -2.008187
     34          7           0       -1.275521   -0.319424    0.863591
     35         16           0       -1.327888   -1.171178    2.252165
     36          8           0       -2.525895   -2.016698    2.231200
     37          8           0       -0.033831   -1.830524    2.446979
     38          6           0       -0.609236    2.691055    0.043856
     39          6           0       -0.136049    2.211266   -1.187620
     40          6           0       -0.920717    2.304324   -2.335498
     41          6           0       -2.195307    2.869551   -2.287190
     42          6           0       -2.678881    3.343873   -1.071089
     43          6           0       -1.887913    3.255131    0.074796
     44          1           0        0.825704    1.711959   -1.215199
     45          1           0       -0.526726    1.938159   -3.281308
     46          1           0       -2.800687    2.945361   -3.186281
     47          1           0       -3.668658    3.788515   -1.012278
     48          1           0       -2.273548    3.639774    1.017074
     49          8           0        0.699330    1.548139    1.895575
     50          1           0       -0.293134   -0.069114    0.552765
     51          6           0        1.840957    0.825345    1.255806
     52          8           0        1.440025    0.218059    0.157579
     53          8           0        2.228765   -0.058450    2.291886
     54          1           0        1.536343   -0.743302    2.313243
     55          6           0        3.040176    1.802774    1.135619
     56          1           0        2.992188    2.518425    1.966365
     57          1           0        3.936683    1.198767    1.322320
     58          6           0        0.231150    2.737829    1.323709
     59          1           0       -0.400263    3.199329    2.094104
     60          1           0        1.063849    3.437371    1.158343
     61          6           0       -1.490106    0.036793    3.546196
     62          1           0       -0.624933    0.698967    3.451940
     63          1           0       -2.426303    0.576272    3.392263
     64          1           0       -1.498650   -0.495626    4.498712
     65          6           0        3.214610    2.536342   -0.191008
     66          1           0        3.223373    1.805318   -1.006233
     67          1           0        2.364946    3.196869   -0.398597
     68          6           0        4.502448    3.357804   -0.214283
     69          1           0        4.636534    3.878658   -1.167415
     70          1           0        4.498294    4.111729    0.581809
     71          1           0        5.377630    2.719373   -0.051294
     72          6           0        4.970298   -1.985334   -0.377252
     73          1           0        5.566138   -1.884683    0.531677
     74          1           0        5.447565   -2.726290   -1.027997
     75          6           0        4.777398   -0.658216   -1.115097
     76          1           0        4.558473    0.128345   -0.388551
     77          1           0        5.642321   -0.357213   -1.709925
 ---------------------------------------------------------------------

 SCF Done:  E(RM062X) =  -1991.35862810     A.U. after   14 cycles

 The electronic state is 1-A.
 Alpha  occ. eigenvalues --  -90.14153 -19.61762 -19.61739 -19.58707 -19.56703
 Alpha  occ. eigenvalues --  -19.51284 -14.85162 -14.80450 -14.75702 -10.63417
 Alpha  occ. eigenvalues --  -10.62785 -10.62266 -10.62175 -10.60716 -10.59327
 Alpha  occ. eigenvalues --  -10.58494 -10.57992 -10.57937 -10.57148 -10.56892
 Alpha  occ. eigenvalues --  -10.56684 -10.55651 -10.55595 -10.55121 -10.54863
 Alpha  occ. eigenvalues --  -10.54833 -10.54777 -10.54717 -10.54565 -10.54393
 Alpha  occ. eigenvalues --  -10.54316 -10.54306 -10.53078 -10.51538 -10.51478
 Alpha  occ. eigenvalues --  -10.49714  -8.45130  -6.37347  -6.37324  -6.37167
 Alpha  occ. eigenvalues --   -1.21978  -1.13603  -1.13506  -1.10233  -1.09347
 Alpha  occ. eigenvalues --   -1.05893  -1.01713  -0.99334  -0.95734  -0.94985
 Alpha  occ. eigenvalues --   -0.93487  -0.90293  -0.88753  -0.85894  -0.85799
 Alpha  occ. eigenvalues --   -0.84822  -0.84699  -0.84249  -0.83053  -0.82681
 Alpha  occ. eigenvalues --   -0.76662  -0.76294  -0.75833  -0.74382  -0.72776
 Alpha  occ. eigenvalues --   -0.71634  -0.68327  -0.68240  -0.67939  -0.67196
 Alpha  occ. eigenvalues --   -0.66753  -0.65226  -0.64870  -0.63524  -0.60566
 Alpha  occ. eigenvalues --   -0.60403  -0.59789  -0.58991  -0.57807  -0.57589
 Alpha  occ. eigenvalues --   -0.57169  -0.56434  -0.55773  -0.55171  -0.54191
 Alpha  occ. eigenvalues --   -0.53533  -0.52653  -0.52446  -0.52417  -0.51906
 Alpha  occ. eigenvalues --   -0.51547  -0.51034  -0.50798  -0.49871  -0.49571
 Alpha  occ. eigenvalues --   -0.49160  -0.48828  -0.48206  -0.48133  -0.48032
 Alpha  occ. eigenvalues --   -0.47663  -0.47457  -0.46906  -0.46443  -0.46102
 Alpha  occ. eigenvalues --   -0.44885  -0.44731  -0.44137  -0.43874  -0.43258
 Alpha  occ. eigenvalues --   -0.42500  -0.42122  -0.41423  -0.41343  -0.41131
 Alpha  occ. eigenvalues --   -0.40898  -0.40474  -0.39996  -0.39822  -0.39342
 Alpha  occ. eigenvalues --   -0.39258  -0.39063  -0.38448  -0.37941  -0.37590
 Alpha  occ. eigenvalues --   -0.37389  -0.36741  -0.36565  -0.35728  -0.34899
 Alpha  occ. eigenvalues --   -0.34384  -0.33950  -0.31680  -0.31077  -0.29767
 Alpha  occ. eigenvalues --   -0.28884  -0.28599  -0.27637  -0.24881  -0.24435
 Alpha virt. eigenvalues --   -0.01512   0.00414   0.03561   0.03764   0.10145
 Alpha virt. eigenvalues --    0.11009   0.11652   0.12179   0.13184   0.13522
 Alpha virt. eigenvalues --    0.14208   0.14622   0.14767   0.15240   0.15601

 Mulliken charges:
               1
     1  C   -0.306242
     2  C   -0.307075
     3  C   -0.309403
     4  C   -0.060021
     5  C    0.056935
     6  C   -0.311656
     7  H    0.173905
     8  H    0.162790
     9  H    0.165428
    10  H    0.151064
    11  H    0.163229
    12  H    0.208888
    13  H    0.172914
    14  H    0.192999
    15  H    0.163586
    16  H    0.154152
    17  N   -0.430670
    18  C    0.067717
    19  C    0.063632
    20  C   -0.202318
    21  H    0.206585
    22  C   -0.209011
    23  H    0.245467
    24  C    0.446424
    25  H    0.191814
    26  H    0.211586
    27  N   -0.526487
    28  C   -0.171653
    29  H    0.169784
    30  H    0.230797
    31  C   -0.154637
    32  H    0.166272
    33  H    0.204579
    34  N   -0.816266
    35  S    1.253662
    36  O   -0.612260
    37  O   -0.607066
    38  C    0.085815
    39  C   -0.183020
    40  C   -0.189572
    41  C   -0.170982
    42  C   -0.163697
    43  C   -0.212180
    44  H    0.209729
    45  H    0.140684
    46  H    0.154874
    47  H    0.158583
    48  H    0.152484
    49  O   -0.549726
    50  H    0.448998
    51  C    0.725463
    52  O   -0.722871
    53  O   -0.718046
    54  H    0.445120
    55  C   -0.338554
    56  H    0.149158
    57  H    0.150846
    58  C   -0.092112
    59  H    0.140365
    60  H    0.147621
    61  C   -0.663183
    62  H    0.272919
    63  H    0.196252
    64  H    0.217496
    65  C   -0.293520
    66  H    0.137575
    67  H    0.146379
    68  C   -0.473827
    69  H    0.149024
    70  H    0.154690
    71  H    0.144597
    72  C   -0.331848
    73  H    0.187336
    74  H    0.163085
    75  C   -0.343406
    76  H    0.196799
    77  H    0.171214
 Sum of Mulliken charges =  -0.00000

 Dipole moment (field-independent basis, Debye):
    X=             -2.4802    Y=             -1.8805    Z=             -6.3847  Tot=              7.1030
 Quadrupole moment (field-independent basis, Debye-Ang):
   XX=           -205.5531   YY=           -222.9843   ZZ=           -219.8166
   XY=            -12.2962   XZ=             -5.3710   YZ=             10.0168

 Normal termination of Gaussian 16 at Thu Feb  7 15:17:37 2019.
