 Gaussian 16, Revision A.03,
 Gaussian 16:  ES64L-G16RevA.03 25-Dec-2016

 ------------------------------------------
 #p M062X/6-31G* em=gd3 force int=ultrafine
 ------------------------------------------

 -----
 Title
 -----
 Symbolic Z-matrix:
 Charge =  0 Multiplicity = 1

                         Standard orientation:
 ---------------------------------------------------------------------
 Center     Atomic      Atomic             Coordinates (Angstroms)
 Number     Number       Type             X           Y           Z
 ---------------------------------------------------------------------
      1          6           0       -4.827847    0.468470   -0.527964
      2          6           0       -5.024900   -0.846465   -1.288480
      3          6           0       -3.701565   -1.330843   -1.892938
      4          6           0       -2.683975   -1.507457   -0.771407
      5          6           0       -2.447199   -0.170486   -0.025422
      6          6           0       -3.766077    0.335337    0.568830
      7          1           0       -3.831002   -2.272129   -2.437615
      8          1           0       -5.412318   -1.613692   -0.605319
      9          1           0       -5.767385   -0.721818   -2.082948
     10          1           0       -4.515775    1.248229   -1.235561
     11          1           0       -5.776708    0.793467   -0.088985
     12          1           0       -3.059341   -2.244776   -0.054824
     13          1           0       -2.127296    0.561666   -0.777846
     14          1           0       -4.111686   -0.356980    1.343518
     15          1           0       -3.577481    1.306829    1.038540
     16          1           0       -3.352382   -0.573773   -2.607985
     17          7           0       -1.365758   -2.006999   -1.214496
     18          6           0       -0.685721   -1.356620   -2.196636
     19          6           0       -0.667086   -2.789405   -0.349515
     20          6           0        0.667134   -1.432752   -2.316556
     21          1           0       -1.280238   -0.741117   -2.860229
     22          6           0        0.687619   -2.902443   -0.395957
     23          1           0       -1.250858   -3.265691    0.430679
     24          6           0        1.428092   -2.125869   -1.327879
     25          1           0        1.153026   -0.886841   -3.114065
     26          1           0        1.176897   -3.484884    0.371662
     27          7           0        2.752875   -2.053625   -1.279587
     28          6           0        3.495547   -2.521275   -0.099165
     29          1           0        3.364019   -3.598183    0.038142
     30          1           0        3.121589   -1.971639    0.776972
     31          6           0        3.493745   -1.000863   -1.991528
     32          1           0        3.737702   -1.336044   -3.007290
     33          1           0        2.878663   -0.097756   -2.023589
     34          7           0       -1.327366   -0.236337    0.901980
     35         16           0       -1.351267   -1.056741    2.316429
     36          8           0       -2.582980   -1.849919    2.351936
     37          8           0       -0.077923   -1.761427    2.476201
     38          6           0       -0.541114    2.649539   -0.072478
     39          6           0       -0.067643    2.098303   -1.273265
     40          6           0       -0.835926    2.162032   -2.434885
     41          6           0       -2.091868    2.768554   -2.431157
     42          6           0       -2.573718    3.317206   -1.245299
     43          6           0       -1.801077    3.256382   -0.085325
     44          1           0        0.880350    1.569653   -1.258820
     45          1           0       -0.442331    1.738837   -3.357113
     46          1           0       -2.683315    2.820433   -3.341155
     47          1           0       -3.548212    3.797268   -1.222113
     48          1           0       -2.186694    3.695237    0.832860
     49          8           0        0.742918    1.521507    1.802150
     50          1           0       -0.365637    0.001538    0.579754
     51          6           0        1.929888    0.805892    1.207785
     52          8           0        1.583074    0.192350    0.103055
     53          8           0        2.276296   -0.066801    2.269222
     54          1           0        1.575318   -0.743403    2.273379
     55          6           0        3.109378    1.808372    1.139462
     56          1           0        3.006967    2.525160    1.965033
     57          1           0        4.017029    1.232866    1.361913
     58          6           0        0.276997    2.708033    1.222282
     59          1           0       -0.374048    3.165624    1.979482
     60          1           0        1.105906    3.415994    1.071588
     61          6           0       -1.412374    0.187792    3.583792
     62          1           0       -0.522573    0.807672    3.440835
     63          1           0       -2.330598    0.763073    3.454058
     64          1           0       -1.404486   -0.323743    4.547808
     65          6           0        3.308099    2.546356   -0.182016
     66          1           0        3.509546    1.818885   -0.977381
     67          1           0        2.394296    3.066082   -0.489193
     68          6           0        4.452413    3.554981   -0.090730
     69          1           0        4.623032    4.068306   -1.042048
     70          1           0        4.235485    4.316715    0.666644
     71          1           0        5.386974    3.062738    0.201478
     72          6           0        4.932462   -2.131564   -0.425170
     73          1           0        5.548574   -2.059256    0.472797
     74          1           0        5.382284   -2.868032   -1.100463
     75          6           0        4.742059   -0.788150   -1.131299
     76          1           0        4.515948   -0.022744   -0.383978
     77          1           0        5.605626   -0.471205   -1.719761
 ---------------------------------------------------------------------

 SCF Done:  E(RM062X) =  -1991.35734017     A.U. after   14 cycles

 The electronic state is 1-A.
 Alpha  occ. eigenvalues --  -90.14490 -19.62071 -19.61999 -19.58542 -19.56621
 Alpha  occ. eigenvalues --  -19.50829 -14.85267 -14.80340 -14.76404 -10.63374
 Alpha  occ. eigenvalues --  -10.62776 -10.62256 -10.62034 -10.60918 -10.59622
 Alpha  occ. eigenvalues --  -10.58212 -10.57964 -10.57897 -10.57174 -10.56901
 Alpha  occ. eigenvalues --  -10.56807 -10.55803 -10.55778 -10.54983 -10.54955
 Alpha  occ. eigenvalues --  -10.54893 -10.54787 -10.54634 -10.54586 -10.54501
 Alpha  occ. eigenvalues --  -10.54436 -10.54361 -10.52985 -10.51291 -10.51248
 Alpha  occ. eigenvalues --  -10.49503  -8.45465  -6.37686  -6.37655  -6.37499
 Alpha  occ. eigenvalues --   -1.22292  -1.13627  -1.13241  -1.10544  -1.09240
 Alpha  occ. eigenvalues --   -1.05735  -1.02112  -0.99166  -0.95846  -0.95016
 Alpha  occ. eigenvalues --   -0.93557  -0.90316  -0.88746  -0.86160  -0.85537
 Alpha  occ. eigenvalues --   -0.84847  -0.84781  -0.84080  -0.83076  -0.82890
 Alpha  occ. eigenvalues --   -0.76695  -0.76066  -0.75780  -0.74259  -0.73007
 Alpha  occ. eigenvalues --   -0.71758  -0.68294  -0.68155  -0.67913  -0.67380
 Alpha  occ. eigenvalues --   -0.66641  -0.65338  -0.64830  -0.63522  -0.60505
 Alpha  occ. eigenvalues --   -0.60372  -0.59686  -0.59432  -0.57741  -0.57700
 Alpha  occ. eigenvalues --   -0.57273  -0.56479  -0.55821  -0.55141  -0.54253
 Alpha  occ. eigenvalues --   -0.53606  -0.52801  -0.52590  -0.52499  -0.51951
 Alpha  occ. eigenvalues --   -0.51593  -0.50926  -0.50494  -0.49924  -0.49417
 Alpha  occ. eigenvalues --   -0.49131  -0.48949  -0.48224  -0.48122  -0.47877
 Alpha  occ. eigenvalues --   -0.47771  -0.47537  -0.47031  -0.46308  -0.46042
 Alpha  occ. eigenvalues --   -0.45002  -0.44737  -0.44245  -0.43810  -0.43277
 Alpha  occ. eigenvalues --   -0.42590  -0.42184  -0.41258  -0.41186  -0.40992
 Alpha  occ. eigenvalues --   -0.40837  -0.40556  -0.39975  -0.39772  -0.39249
 Alpha  occ. eigenvalues --   -0.39205  -0.39096  -0.38399  -0.38153  -0.37745
 Alpha  occ. eigenvalues --   -0.37322  -0.36678  -0.36456  -0.35919  -0.34949
 Alpha  occ. eigenvalues --   -0.34416  -0.34094  -0.31768  -0.31211  -0.29805
 Alpha  occ. eigenvalues --   -0.28883  -0.28604  -0.27717  -0.24397  -0.24095
 Alpha virt. eigenvalues --   -0.01468   0.00386   0.03488   0.03713   0.10118
 Alpha virt. eigenvalues --    0.10789   0.11518   0.12349   0.13149   0.13360
 Alpha virt. eigenvalues --    0.14207   0.14372   0.14736   0.15298   0.15582

 Mulliken charges:
               1
     1  C   -0.306364
     2  C   -0.307425
     3  C   -0.309595
     4  C   -0.059363
     5  C    0.055516
     6  C   -0.310247
     7  H    0.174719
     8  H    0.163071
     9  H    0.166218
    10  H    0.150699
    11  H    0.164398
    12  H    0.207964
    13  H    0.174676
    14  H    0.194919
    15  H    0.163413
    16  H    0.155304
    17  N   -0.433367
    18  C    0.069665
    19  C    0.066472
    20  C   -0.202754
    21  H    0.205584
    22  C   -0.211018
    23  H    0.243860
    24  C    0.447483
    25  H    0.192440
    26  H    0.211130
    27  N   -0.523838
    28  C   -0.169127
    29  H    0.168883
    30  H    0.226430
    31  C   -0.152280
    32  H    0.163384
    33  H    0.206674
    34  N   -0.807577
    35  S    1.248994
    36  O   -0.607442
    37  O   -0.600888
    38  C    0.075005
    39  C   -0.189728
    40  C   -0.190870
    41  C   -0.172393
    42  C   -0.164406
    43  C   -0.210290
    44  H    0.220084
    45  H    0.140264
    46  H    0.155001
    47  H    0.158533
    48  H    0.152267
    49  O   -0.559240
    50  H    0.443726
    51  C    0.720204
    52  O   -0.717449
    53  O   -0.715673
    54  H    0.439353
    55  C   -0.338097
    56  H    0.146613
    57  H    0.150457
    58  C   -0.086731
    59  H    0.137043
    60  H    0.149421
    61  C   -0.664195
    62  H    0.276711
    63  H    0.197470
    64  H    0.218941
    65  C   -0.289232
    66  H    0.134271
    67  H    0.144460
    68  C   -0.473574
    69  H    0.148274
    70  H    0.152391
    71  H    0.147023
    72  C   -0.332785
    73  H    0.186381
    74  H    0.161931
    75  C   -0.341732
    76  H    0.200330
    77  H    0.169629
 Sum of Mulliken charges =  -0.00000

 Dipole moment (field-independent basis, Debye):
    X=             -3.0299    Y=             -2.1438    Z=             -6.1252  Tot=              7.1620
 Quadrupole moment (field-independent basis, Debye-Ang):
   XX=           -206.8698   YY=           -221.7746   ZZ=           -220.0585
   XY=            -12.7954   XZ=             -4.7133   YZ=             10.2741

 Normal termination of Gaussian 16 at Thu Feb  7 12:43:35 2019.
