 Gaussian 16, Revision A.03,
 Gaussian 16:  ES64L-G16RevA.03 25-Dec-2016

 ------------------------------------------
 #p M062X/6-31G* em=gd3 force int=ultrafine
 ------------------------------------------

 -----
 Title
 -----
 Symbolic Z-matrix:
 Charge =  0 Multiplicity = 1

                         Standard orientation:
 ---------------------------------------------------------------------
 Center     Atomic      Atomic             Coordinates (Angstroms)
 Number     Number       Type             X           Y           Z
 ---------------------------------------------------------------------
      1          6           0       -4.860950    0.304771   -0.478534
      2          6           0       -4.981629   -0.976722   -1.308518
      3          6           0       -3.622737   -1.375316   -1.898037
      4          6           0       -2.625803   -1.564945   -0.759063
      5          6           0       -2.460457   -0.259601    0.069198
      6          6           0       -3.824974    0.153117    0.639368
      7          1           0       -3.702450   -2.288771   -2.498330
      8          1           0       -5.353416   -1.791613   -0.673738
      9          1           0       -5.707253   -0.844902   -2.117945
     10          1           0       -4.552450    1.128192   -1.138328
     11          1           0       -5.836862    0.576754   -0.062470
     12          1           0       -2.974735   -2.361359   -0.094293
     13          1           0       -2.187913    0.512478   -0.666825
     14          1           0       -4.155510   -0.590788    1.374598
     15          1           0       -3.688391    1.106763    1.163442
     16          1           0       -3.291756   -0.564716   -2.561855
     17          7           0       -1.272855   -1.979017   -1.203994
     18          6           0       -0.629305   -1.302102   -2.184116
     19          6           0       -0.542119   -2.744021   -0.358332
     20          6           0        0.726106   -1.356275   -2.341056
     21          1           0       -1.248057   -0.686999   -2.824673
     22          6           0        0.817090   -2.846382   -0.450644
     23          1           0       -1.096996   -3.234658    0.434227
     24          6           0        1.521767   -2.072932   -1.403948
     25          1           0        1.179887   -0.791478   -3.144924
     26          1           0        1.329071   -3.431074    0.300625
     27          7           0        2.861110   -2.004010   -1.402640
     28          6           0        3.627468   -2.497646   -0.250090
     29          1           0        3.545565   -3.584800   -0.165366
     30          1           0        3.233769   -2.036047    0.666288
     31          6           0        3.586526   -0.934438   -2.108534
     32          1           0        3.854855   -1.263844   -3.119357
     33          1           0        2.961967   -0.039226   -2.166404
     34          7           0       -1.340203   -0.308535    0.977895
     35         16           0       -1.342515   -1.202256    2.283374
     36          8           0       -2.428885   -2.204719    2.316762
     37          8           0        0.027322   -1.745781    2.488711
     38          6           0       -0.837642    2.802765   -0.102106
     39          6           0       -0.230673    2.138152   -1.175823
     40          6           0       -0.858054    2.116004   -2.420168
     41          6           0       -2.106017    2.714885   -2.599975
     42          6           0       -2.724683    3.347095   -1.524613
     43          6           0       -2.086810    3.390234   -0.287867
     44          1           0        0.709143    1.610314   -1.021513
     45          1           0       -0.372183    1.624577   -3.260740
     46          1           0       -2.594552    2.689077   -3.569454
     47          1           0       -3.701527    3.806017   -1.642345
     48          1           0       -2.565414    3.877065    0.558305
     49          8           0        0.297548    1.630547    1.692437
     50          1           0       -0.303639    0.903872    1.317465
     51          6           0        2.436214    0.577929    1.165060
     52          8           0        2.093048    0.170473    0.068958
     53          8           0        2.281116   -0.117635    2.285746
     54          1           0        1.545375   -0.776832    2.181225
     55          6           0        3.161711    1.887387    1.374229
     56          1           0        2.620654    2.425050    2.160004
     57          1           0        4.157676    1.664257    1.779782
     58          6           0       -0.185828    2.864115    1.262456
     59          1           0       -0.909372    3.283859    1.979566
     60          1           0        0.670046    3.556000    1.236773
     61          6           0       -1.565361   -0.078812    3.662271
     62          1           0       -0.774453    0.669966    3.573618
     63          1           0       -2.547891    0.389748    3.578395
     64          1           0       -1.475337   -0.634467    4.596451
     65          6           0        3.273592    2.725740    0.103290
     66          1           0        3.667676    2.106476   -0.711130
     67          1           0        2.273854    3.037081   -0.221176
     68          6           0        4.160499    3.952219    0.302772
     69          1           0        4.272418    4.520621   -0.625113
     70          1           0        3.742353    4.624731    1.059240
     71          1           0        5.160804    3.658186    0.638786
     72          6           0        5.049966   -2.028521   -0.540554
     73          1           0        5.644820   -1.942973    0.371080
     74          1           0        5.548706   -2.731702   -1.215204
     75          6           0        4.822486   -0.685734   -1.238088
     76          1           0        4.580849    0.077916   -0.493771
     77          1           0        5.681037   -0.344587   -1.820118
 ---------------------------------------------------------------------

 SCF Done:  E(RM062X) =  -1991.38192496     A.U. after   15 cycles

 The electronic state is 1-A.
 Alpha  occ. eigenvalues --  -90.10219 -19.63696 -19.60225 -19.58645 -19.58285
 Alpha  occ. eigenvalues --  -19.58283 -14.84797 -14.80414 -14.69260 -10.65889
 Alpha  occ. eigenvalues --  -10.63214 -10.62437 -10.61622 -10.59257 -10.59061
 Alpha  occ. eigenvalues --  -10.58884 -10.57828 -10.57336 -10.56768 -10.56718
 Alpha  occ. eigenvalues --  -10.55929 -10.55689 -10.55630 -10.55097 -10.55026
 Alpha  occ. eigenvalues --  -10.54939 -10.54656 -10.54612 -10.54517 -10.53991
 Alpha  occ. eigenvalues --  -10.53598 -10.53582 -10.53534 -10.53296 -10.52936
 Alpha  occ. eigenvalues --  -10.52618  -8.41171  -6.33407  -6.33317  -6.33239
 Alpha  occ. eigenvalues --   -1.19316  -1.17673  -1.12923  -1.10102  -1.10008
 Alpha  occ. eigenvalues --   -1.09044  -1.05974  -0.97550  -0.95377  -0.94732
 Alpha  occ. eigenvalues --   -0.92189  -0.89813  -0.88561  -0.88399  -0.85107
 Alpha  occ. eigenvalues --   -0.84813  -0.83720  -0.83552  -0.83273  -0.79992
 Alpha  occ. eigenvalues --   -0.79455  -0.76307  -0.75603  -0.74655  -0.70949
 Alpha  occ. eigenvalues --   -0.70283  -0.69394  -0.68655  -0.68346  -0.68111
 Alpha  occ. eigenvalues --   -0.66014  -0.64762  -0.63921  -0.63541  -0.61605
 Alpha  occ. eigenvalues --   -0.60280  -0.59372  -0.59124  -0.58354  -0.56165
 Alpha  occ. eigenvalues --   -0.55740  -0.55324  -0.55169  -0.54492  -0.53909
 Alpha  occ. eigenvalues --   -0.53471  -0.53049  -0.52643  -0.51826  -0.51635
 Alpha  occ. eigenvalues --   -0.51061  -0.50943  -0.50624  -0.50002  -0.49837
 Alpha  occ. eigenvalues --   -0.49745  -0.49517  -0.48762  -0.48311  -0.48040
 Alpha  occ. eigenvalues --   -0.47725  -0.47260  -0.47091  -0.46997  -0.45793
 Alpha  occ. eigenvalues --   -0.45511  -0.45157  -0.43973  -0.43728  -0.43483
 Alpha  occ. eigenvalues --   -0.43062  -0.42837  -0.42141  -0.42017  -0.41807
 Alpha  occ. eigenvalues --   -0.41231  -0.40930  -0.40515  -0.39885  -0.39662
 Alpha  occ. eigenvalues --   -0.39409  -0.39362  -0.39140  -0.38397  -0.38112
 Alpha  occ. eigenvalues --   -0.37414  -0.36295  -0.35829  -0.35326  -0.35169
 Alpha  occ. eigenvalues --   -0.34219  -0.32959  -0.31957  -0.31695  -0.31203
 Alpha  occ. eigenvalues --   -0.29978  -0.28774  -0.28338  -0.27287  -0.25339
 Alpha virt. eigenvalues --   -0.01074   0.00688   0.03103   0.03672   0.08735
 Alpha virt. eigenvalues --    0.10155   0.10971   0.11777   0.12967   0.13490
 Alpha virt. eigenvalues --    0.13761   0.14317   0.14995   0.15447   0.15872

 Mulliken charges:
               1
     1  C   -0.303845
     2  C   -0.304445
     3  C   -0.309866
     4  C   -0.070981
     5  C    0.069328
     6  C   -0.304784
     7  H    0.167136
     8  H    0.161537
     9  H    0.159313
    10  H    0.144701
    11  H    0.157162
    12  H    0.208588
    13  H    0.140103
    14  H    0.182086
    15  H    0.150069
    16  H    0.149814
    17  N   -0.424424
    18  C    0.097046
    19  C    0.092973
    20  C   -0.226360
    21  H    0.204476
    22  C   -0.227745
    23  H    0.258564
    24  C    0.426370
    25  H    0.187381
    26  H    0.207874
    27  N   -0.526136
    28  C   -0.159204
    29  H    0.178098
    30  H    0.197803
    31  C   -0.145357
    32  H    0.169499
    33  H    0.193750
    34  N   -0.771751
    35  S    1.245057
    36  O   -0.636846
    37  O   -0.667794
    38  C    0.052204
    39  C   -0.176809
    40  C   -0.188856
    41  C   -0.169519
    42  C   -0.160397
    43  C   -0.199953
    44  H    0.204013
    45  H    0.139950
    46  H    0.157331
    47  H    0.162528
    48  H    0.158783
    49  O   -0.717936
    50  H    0.486568
    51  C    0.666779
    52  O   -0.521604
    53  O   -0.646138
    54  H    0.482133
    55  C   -0.374989
    56  H    0.202322
    57  H    0.167672
    58  C   -0.062992
    59  H    0.126285
    60  H    0.142705
    61  C   -0.665137
    62  H    0.231854
    63  H    0.184802
    64  H    0.205391
    65  C   -0.291256
    66  H    0.147376
    67  H    0.162423
    68  C   -0.480693
    69  H    0.160027
    70  H    0.158916
    71  H    0.152233
    72  C   -0.335793
    73  H    0.184191
    74  H    0.169516
    75  C   -0.335411
    76  H    0.179673
    77  H    0.172618
 Sum of Mulliken charges =  -0.00000

 Dipole moment (field-independent basis, Debye):
    X=              1.7014    Y=              0.1690    Z=             -6.7710  Tot=              6.9835
 Quadrupole moment (field-independent basis, Debye-Ang):
   XX=           -200.3305   YY=           -222.4916   ZZ=           -222.9404
   XY=            -11.5815   XZ=              1.1084   YZ=             13.1816

 Normal termination of Gaussian 16 at Thu Feb  7 21:37:33 2019.
