 Gaussian 16, Revision A.03,
 Gaussian 16:  ES64L-G16RevA.03 25-Dec-2016

 ------------------------------------------
 #p M062X/6-31G* em=gd3 force int=ultrafine
 ------------------------------------------

 -----
 Title
 -----
 Symbolic Z-matrix:
 Charge =  0 Multiplicity = 1

                         Standard orientation:
 ---------------------------------------------------------------------
 Center     Atomic      Atomic             Coordinates (Angstroms)
 Number     Number       Type             X           Y           Z
 ---------------------------------------------------------------------
      1          6           0       -4.844417    0.416446   -0.511723
      2          6           0       -4.986912   -0.856166   -1.351645
      3          6           0       -3.633576   -1.271976   -1.940632
      4          6           0       -2.642757   -1.494002   -0.801811
      5          6           0       -2.461781   -0.204152    0.039626
      6          6           0       -3.816140    0.237549    0.609996
      7          1           0       -3.724251   -2.179752   -2.547316
      8          1           0       -5.376104   -1.670307   -0.726165
      9          1           0       -5.707031   -0.703642   -2.161990
     10          1           0       -4.521852    1.240589   -1.162875
     11          1           0       -5.814838    0.700084   -0.091297
     12          1           0       -3.014990   -2.289516   -0.148533
     13          1           0       -2.136769    0.576206   -0.662086
     14          1           0       -4.168541   -0.505917    1.334033
     15          1           0       -3.663995    1.184340    1.141125
     16          1           0       -3.285016   -0.461891   -2.595427
     17          7           0       -1.300637   -1.934471   -1.246936
     18          6           0       -0.636055   -1.253028   -2.212795
     19          6           0       -0.590595   -2.735188   -0.413579
     20          6           0        0.717596   -1.327253   -2.357914
     21          1           0       -1.238279   -0.617161   -2.848743
     22          6           0        0.765765   -2.851823   -0.488401
     23          1           0       -1.162835   -3.240771    0.356633
     24          6           0        1.493553   -2.065515   -1.418780
     25          1           0        1.188605   -0.755901   -3.146839
     26          1           0        1.262618   -3.461881    0.252772
     27          7           0        2.827290   -2.012614   -1.399559
     28          6           0        3.576712   -2.525041   -0.242959
     29          1           0        3.464763   -3.609311   -0.157430
     30          1           0        3.192157   -2.040404    0.665498
     31          6           0        3.574220   -0.944743   -2.087109
     32          1           0        3.840915   -1.267489   -3.100537
     33          1           0        2.963937   -0.039379   -2.129355
     34          7           0       -1.355152   -0.323396    0.973251
     35         16           0       -1.396555   -1.222646    2.318139
     36          8           0       -2.567861   -2.108902    2.280581
     37          8           0       -0.079919   -1.860708    2.490369
     38          6           0       -0.696217    2.756273   -0.066678
     39          6           0       -0.135717    2.111125   -1.178747
     40          6           0       -0.790554    2.145375   -2.408631
     41          6           0       -2.027402    2.780418   -2.539288
     42          6           0       -2.599810    3.397382   -1.429276
     43          6           0       -1.930417    3.386881   -0.207590
     44          1           0        0.791628    1.552923   -1.055484
     45          1           0       -0.336290    1.670405   -3.276754
     46          1           0       -2.538778    2.799814   -3.497161
     47          1           0       -3.565158    3.888018   -1.510215
     48          1           0       -2.373688    3.862851    0.664202
     49          8           0        0.371659    1.423840    1.627036
     50          1           0       -0.556991    0.481166    1.097656
     51          6           0        2.275964    0.624139    1.174937
     52          8           0        2.057004    0.154216    0.062258
     53          8           0        2.235223   -0.133584    2.289384
     54          1           0        1.532243   -0.809247    2.177194
     55          6           0        3.089607    1.883949    1.388123
     56          1           0        2.656436    2.474157    2.202108
     57          1           0        4.067269    1.532754    1.748292
     58          6           0       -0.015757    2.697213    1.292035
     59          1           0       -0.714895    3.121654    2.038624
     60          1           0        0.846628    3.396440    1.278443
     61          6           0       -1.533696   -0.053714    3.656791
     62          1           0       -0.701950    0.643860    3.509498
     63          1           0       -2.495200    0.456010    3.575716
     64          1           0       -1.451841   -0.594938    4.600476
     65          6           0        3.285428    2.717600    0.124688
     66          1           0        3.668680    2.070814   -0.673317
     67          1           0        2.322254    3.094663   -0.236775
     68          6           0        4.243116    3.884384    0.357446
     69          1           0        4.412416    4.455839   -0.560114
     70          1           0        3.848669    4.573056    1.112385
     71          1           0        5.215294    3.526395    0.714294
     72          6           0        5.009218   -2.091167   -0.533323
     73          1           0        5.610684   -2.037141    0.376078
     74          1           0        5.484691   -2.795182   -1.224481
     75          6           0        4.805258   -0.730737   -1.202250
     76          1           0        4.555015    0.013705   -0.441192
     77          1           0        5.672128   -0.384468   -1.768566
 ---------------------------------------------------------------------

 SCF Done:  E(RM062X) =  -1991.35934625     A.U. after   15 cycles

 The electronic state is 1-A.
 Alpha  occ. eigenvalues --  -90.13033 -19.61615 -19.60985 -19.60747 -19.57395
 Alpha  occ. eigenvalues --  -19.53499 -14.85316 -14.80576 -14.73529 -10.64700
 Alpha  occ. eigenvalues --  -10.63534 -10.62813 -10.62258 -10.60485 -10.58775
 Alpha  occ. eigenvalues --  -10.58678 -10.58623 -10.58079 -10.57243 -10.56400
 Alpha  occ. eigenvalues --  -10.55635 -10.55329 -10.55235 -10.54990 -10.54807
 Alpha  occ. eigenvalues --  -10.54490 -10.54423 -10.54390 -10.54353 -10.53802
 Alpha  occ. eigenvalues --  -10.53673 -10.53290 -10.52940 -10.52355 -10.52043
 Alpha  occ. eigenvalues --  -10.52038  -8.44036  -6.36257  -6.36197  -6.36097
 Alpha  occ. eigenvalues --   -1.20784  -1.16841  -1.13519  -1.09480  -1.09069
 Alpha  occ. eigenvalues --   -1.07253  -1.03530  -1.00046  -0.95560  -0.94452
 Alpha  occ. eigenvalues --   -0.93279  -0.90289  -0.88841  -0.87126  -0.85299
 Alpha  occ. eigenvalues --   -0.84658  -0.84377  -0.83641  -0.82741  -0.81866
 Alpha  occ. eigenvalues --   -0.78082  -0.76731  -0.75903  -0.72205  -0.71782
 Alpha  occ. eigenvalues --   -0.71332  -0.68559  -0.68500  -0.68101  -0.67260
 Alpha  occ. eigenvalues --   -0.66236  -0.64712  -0.64165  -0.63234  -0.61805
 Alpha  occ. eigenvalues --   -0.60445  -0.60139  -0.58419  -0.58303  -0.57095
 Alpha  occ. eigenvalues --   -0.56494  -0.56336  -0.54960  -0.54178  -0.53818
 Alpha  occ. eigenvalues --   -0.53247  -0.53104  -0.52555  -0.52115  -0.51824
 Alpha  occ. eigenvalues --   -0.51463  -0.50969  -0.50768  -0.50354  -0.49994
 Alpha  occ. eigenvalues --   -0.49871  -0.48660  -0.48479  -0.48381  -0.47537
 Alpha  occ. eigenvalues --   -0.47262  -0.47221  -0.46953  -0.46206  -0.46074
 Alpha  occ. eigenvalues --   -0.45819  -0.44890  -0.44687  -0.43619  -0.43224
 Alpha  occ. eigenvalues --   -0.42723  -0.42121  -0.42019  -0.41834  -0.41425
 Alpha  occ. eigenvalues --   -0.40978  -0.40679  -0.40081  -0.39823  -0.39603
 Alpha  occ. eigenvalues --   -0.39505  -0.38760  -0.38380  -0.38105  -0.38043
 Alpha  occ. eigenvalues --   -0.37582  -0.37212  -0.36729  -0.36435  -0.35120
 Alpha  occ. eigenvalues --   -0.34450  -0.33986  -0.33362  -0.29931  -0.29587
 Alpha  occ. eigenvalues --   -0.29182  -0.28615  -0.28083  -0.25653  -0.24629
 Alpha virt. eigenvalues --   -0.01499   0.00310   0.03773   0.04495   0.10200
 Alpha virt. eigenvalues --    0.11072   0.11266   0.11841   0.12374   0.13432
 Alpha virt. eigenvalues --    0.13832   0.14059   0.15019   0.15356   0.15439

 Mulliken charges:
               1
     1  C   -0.306657
     2  C   -0.306518
     3  C   -0.311456
     4  C   -0.065411
     5  C    0.071509
     6  C   -0.307108
     7  H    0.171541
     8  H    0.162147
     9  H    0.164150
    10  H    0.151862
    11  H    0.162047
    12  H    0.209159
    13  H    0.166751
    14  H    0.187339
    15  H    0.160618
    16  H    0.156000
    17  N   -0.430709
    18  C    0.091692
    19  C    0.091684
    20  C   -0.220388
    21  H    0.206989
    22  C   -0.226178
    23  H    0.251027
    24  C    0.432417
    25  H    0.192144
    26  H    0.209008
    27  N   -0.520937
    28  C   -0.160807
    29  H    0.174542
    30  H    0.204443
    31  C   -0.147083
    32  H    0.167709
    33  H    0.200372
    34  N   -0.820470
    35  S    1.245647
    36  O   -0.614664
    37  O   -0.625604
    38  C    0.058213
    39  C   -0.193803
    40  C   -0.190268
    41  C   -0.175833
    42  C   -0.161900
    43  C   -0.206130
    44  H    0.209948
    45  H    0.134623
    46  H    0.152476
    47  H    0.156924
    48  H    0.154062
    49  O   -0.701471
    50  H    0.461024
    51  C    0.679520
    52  O   -0.557692
    53  O   -0.655207
    54  H    0.464632
    55  C   -0.355031
    56  H    0.188102
    57  H    0.156776
    58  C   -0.033677
    59  H    0.094186
    60  H    0.111815
    61  C   -0.671849
    62  H    0.265598
    63  H    0.195692
    64  H    0.214650
    65  C   -0.291296
    66  H    0.141660
    67  H    0.163185
    68  C   -0.478783
    69  H    0.155448
    70  H    0.157526
    71  H    0.148911
    72  C   -0.334738
    73  H    0.184931
    74  H    0.166550
    75  C   -0.336161
    76  H    0.189476
    77  H    0.171100
 Sum of Mulliken charges =  -0.00000

 Dipole moment (field-independent basis, Debye):
    X=             -0.3455    Y=             -2.0082    Z=             -6.2188  Tot=              6.5441
 Quadrupole moment (field-independent basis, Debye-Ang):
   XX=           -201.2405   YY=           -225.6525   ZZ=           -220.0492
   XY=            -11.4874   XZ=             -1.7861   YZ=             10.7214

 Normal termination of Gaussian 16 at Thu Feb  7 19:29:12 2019.
