 Gaussian 16, Revision A.03,
 Gaussian 16:  ES64L-G16RevA.03 25-Dec-2016

 ------------------------------------------
 #p M062X/6-31G* em=gd3 force int=ultrafine
 ------------------------------------------

 -----
 Title
 -----
 Symbolic Z-matrix:
 Charge =  0 Multiplicity = 1

                         Standard orientation:
 ---------------------------------------------------------------------
 Center     Atomic      Atomic             Coordinates (Angstroms)
 Number     Number       Type             X           Y           Z
 ---------------------------------------------------------------------
      1          6           0       -4.788205    0.450052   -0.516954
      2          6           0       -4.993459   -0.846699   -1.305815
      3          6           0       -3.675716   -1.319489   -1.932137
      4          6           0       -2.652882   -1.523924   -0.820688
      5          6           0       -2.404126   -0.204028   -0.046165
      6          6           0       -3.718071    0.291181    0.567909
      7          1           0       -3.812188   -2.248048   -2.496654
      8          1           0       -5.375935   -1.628954   -0.637033
      9          1           0       -5.742663   -0.702673   -2.090596
     10          1           0       -4.480454    1.244820   -1.209103
     11          1           0       -5.732830    0.766750   -0.062968
     12          1           0       -3.028120   -2.274269   -0.118074
     13          1           0       -2.086472    0.543417   -0.784396
     14          1           0       -4.059268   -0.418173    1.329297
     15          1           0       -3.524502    1.251735    1.057295
     16          1           0       -3.329892   -0.547343   -2.632616
     17          7           0       -1.336937   -2.018380   -1.276808
     18          6           0       -0.654531   -1.340982   -2.238617
     19          6           0       -0.638106   -2.811135   -0.421057
     20          6           0        0.700658   -1.396385   -2.343179
     21          1           0       -1.249833   -0.720676   -2.897322
     22          6           0        0.718731   -2.903782   -0.451645
     23          1           0       -1.225071   -3.311101    0.341876
     24          6           0        1.458105   -2.093288   -1.354278
     25          1           0        1.188508   -0.829443   -3.124509
     26          1           0        1.206918   -3.495005    0.309970
     27          7           0        2.780155   -1.991941   -1.280647
     28          6           0        3.516115   -2.450846   -0.092744
     29          1           0        3.396957   -3.529270    0.042945
     30          1           0        3.126024   -1.907501    0.780489
     31          6           0        3.506920   -0.919989   -1.975896
     32          1           0        3.748573   -1.233213   -2.999012
     33          1           0        2.878582   -0.025435   -1.993009
     34          7           0       -1.279688   -0.299815    0.871849
     35         16           0       -1.324219   -1.140164    2.269298
     36          8           0       -2.534379   -1.968010    2.267552
     37          8           0       -0.037177   -1.815724    2.452071
     38          6           0       -0.582708    2.679311    0.005462
     39          6           0       -0.110757    2.176089   -1.217272
     40          6           0       -0.890778    2.260790   -2.369133
     41          6           0       -2.159351    2.840086   -2.333869
     42          6           0       -2.641255    3.338573   -1.126618
     43          6           0       -1.855109    3.258406    0.023179
     44          1           0        0.846048    1.665876   -1.232963
     45          1           0       -0.497414    1.876398   -3.308095
     46          1           0       -2.760930    2.908668   -3.236074
     47          1           0       -3.626108    3.795128   -1.078000
     48          1           0       -2.239852    3.661147    0.958194
     49          8           0        0.717999    1.544941    1.868460
     50          1           0       -0.303015   -0.057180    0.554148
     51          6           0        1.869879    0.818803    1.240431
     52          8           0        1.479289    0.208449    0.142109
     53          8           0        2.245489   -0.060710    2.284343
     54          1           0        1.552724   -0.745582    2.299100
     55          6           0        3.064258    1.801467    1.132096
     56          1           0        3.001756    2.517983    1.961745
     57          1           0        3.964643    1.205944    1.328423
     58          6           0        0.251165    2.731747    1.289953
     59          1           0       -0.385976    3.194488    2.055135
     60          1           0        1.082955    3.433545    1.127230
     61          6           0       -1.453684    0.080203    3.555159
     62          1           0       -0.578442    0.726948    3.447630
     63          1           0       -2.382272    0.633941    3.405845
     64          1           0       -1.461990   -0.445334    4.511498
     65          6           0        3.244979    2.538153   -0.192140
     66          1           0        3.342224    1.807021   -1.002211
     67          1           0        2.361283    3.134167   -0.442213
     68          6           0        4.470664    3.449567   -0.162444
     69          1           0        4.619219    3.964925   -1.116378
     70          1           0        4.366209    4.211244    0.617311
     71          1           0        5.378897    2.878058    0.059479
     72          6           0        4.951666   -2.046123   -0.407330
     73          1           0        5.559713   -1.966037    0.495483
     74          1           0        5.413906   -2.780044   -1.076783
     75          6           0        4.758569   -0.705580   -1.119692
     76          1           0        4.542601    0.066484   -0.376643
     77          1           0        5.620691   -0.394484   -1.713354
 ---------------------------------------------------------------------

 SCF Done:  E(RM062X) =  -1991.35825708     A.U. after   14 cycles

 The electronic state is 1-A.
 Alpha  occ. eigenvalues --  -90.14237 -19.61835 -19.61807 -19.58635 -19.56684
 Alpha  occ. eigenvalues --  -19.51184 -14.85191 -14.80436 -14.75889 -10.63421
 Alpha  occ. eigenvalues --  -10.62789 -10.62224 -10.62207 -10.60763 -10.59406
 Alpha  occ. eigenvalues --  -10.58392 -10.58004 -10.57969 -10.57178 -10.56888
 Alpha  occ. eigenvalues --  -10.56712 -10.55681 -10.55627 -10.55100 -10.54853
 Alpha  occ. eigenvalues --  -10.54821 -10.54788 -10.54739 -10.54588 -10.54410
 Alpha  occ. eigenvalues --  -10.54356 -10.54332 -10.53059 -10.51450 -10.51409
 Alpha  occ. eigenvalues --  -10.49660  -8.45213  -6.37431  -6.37407  -6.37249
 Alpha  occ. eigenvalues --   -1.22058  -1.13594  -1.13444  -1.10312  -1.09338
 Alpha  occ. eigenvalues --   -1.05844  -1.01810  -0.99287  -0.95770  -0.94996
 Alpha  occ. eigenvalues --   -0.93512  -0.90313  -0.88760  -0.85951  -0.85745
 Alpha  occ. eigenvalues --   -0.84825  -0.84727  -0.84210  -0.83061  -0.82731
 Alpha  occ. eigenvalues --   -0.76677  -0.76240  -0.75829  -0.74333  -0.72831
 Alpha  occ. eigenvalues --   -0.71675  -0.68329  -0.68214  -0.67940  -0.67239
 Alpha  occ. eigenvalues --   -0.66734  -0.65244  -0.64867  -0.63532  -0.60543
 Alpha  occ. eigenvalues --   -0.60404  -0.59771  -0.59102  -0.57803  -0.57616
 Alpha  occ. eigenvalues --   -0.57198  -0.56446  -0.55800  -0.55166  -0.54209
 Alpha  occ. eigenvalues --   -0.53570  -0.52672  -0.52487  -0.52468  -0.51904
 Alpha  occ. eigenvalues --   -0.51556  -0.51004  -0.50691  -0.49891  -0.49527
 Alpha  occ. eigenvalues --   -0.49164  -0.48854  -0.48212  -0.48139  -0.47985
 Alpha  occ. eigenvalues --   -0.47693  -0.47479  -0.46929  -0.46418  -0.46103
 Alpha  occ. eigenvalues --   -0.44891  -0.44741  -0.44165  -0.43858  -0.43267
 Alpha  occ. eigenvalues --   -0.42536  -0.42156  -0.41380  -0.41290  -0.41088
 Alpha  occ. eigenvalues --   -0.40906  -0.40500  -0.39992  -0.39792  -0.39277
 Alpha  occ. eigenvalues --   -0.39248  -0.39081  -0.38431  -0.37998  -0.37616
 Alpha  occ. eigenvalues --   -0.37389  -0.36750  -0.36547  -0.35777  -0.34918
 Alpha  occ. eigenvalues --   -0.34396  -0.33997  -0.31667  -0.31139  -0.29777
 Alpha  occ. eigenvalues --   -0.28869  -0.28605  -0.27666  -0.24766  -0.24356
 Alpha virt. eigenvalues --   -0.01529   0.00392   0.03537   0.03743   0.10130
 Alpha virt. eigenvalues --    0.10957   0.11639   0.12237   0.13160   0.13483
 Alpha virt. eigenvalues --    0.14224   0.14547   0.14756   0.15221   0.15600

 Mulliken charges:
               1
     1  C   -0.306293
     2  C   -0.307195
     3  C   -0.309151
     4  C   -0.060324
     5  C    0.056322
     6  C   -0.311258
     7  H    0.174114
     8  H    0.162910
     9  H    0.165623
    10  H    0.150935
    11  H    0.163524
    12  H    0.209120
    13  H    0.173305
    14  H    0.193376
    15  H    0.163564
    16  H    0.154403
    17  N   -0.430760
    18  C    0.067370
    19  C    0.064187
    20  C   -0.201503
    21  H    0.206297
    22  C   -0.209457
    23  H    0.244965
    24  C    0.445857
    25  H    0.192202
    26  H    0.211461
    27  N   -0.525698
    28  C   -0.170411
    29  H    0.169736
    30  H    0.228595
    31  C   -0.154732
    32  H    0.165129
    33  H    0.206619
    34  N   -0.814721
    35  S    1.252634
    36  O   -0.611373
    37  O   -0.605468
    38  C    0.083299
    39  C   -0.185433
    40  C   -0.189936
    41  C   -0.171461
    42  C   -0.163762
    43  C   -0.211949
    44  H    0.213148
    45  H    0.140465
    46  H    0.154940
    47  H    0.158599
    48  H    0.152461
    49  O   -0.551994
    50  H    0.448034
    51  C    0.723575
    52  O   -0.721108
    53  O   -0.717769
    54  H    0.443970
    55  C   -0.338454
    56  H    0.148435
    57  H    0.151218
    58  C   -0.090373
    59  H    0.139423
    60  H    0.147838
    61  C   -0.663407
    62  H    0.274448
    63  H    0.196405
    64  H    0.217705
    65  C   -0.291917
    66  H    0.134662
    67  H    0.146160
    68  C   -0.473278
    69  H    0.148769
    70  H    0.154174
    71  H    0.145573
    72  C   -0.331976
    73  H    0.186938
    74  H    0.162838
    75  C   -0.342958
    76  H    0.197855
    77  H    0.170937
 Sum of Mulliken charges =  -0.00000

 Dipole moment (field-independent basis, Debye):
    X=             -2.6434    Y=             -1.9780    Z=             -6.3184  Tot=              7.1290
 Quadrupole moment (field-independent basis, Debye-Ang):
   XX=           -205.9349   YY=           -222.5434   ZZ=           -220.0326
   XY=            -12.4881   XZ=             -5.2075   YZ=             10.0741

 Normal termination of Gaussian 16 at Thu Feb  7 14:15:07 2019.
