 Gaussian 16, Revision A.03,
 Gaussian 16:  ES64L-G16RevA.03 25-Dec-2016

 ------------------------------------------
 #p M062X/6-31G* em=gd3 force int=ultrafine
 ------------------------------------------

 -----
 Title
 -----
 Symbolic Z-matrix:
 Charge =  0 Multiplicity = 1

                         Standard orientation:
 ---------------------------------------------------------------------
 Center     Atomic      Atomic             Coordinates (Angstroms)
 Number     Number       Type             X           Y           Z
 ---------------------------------------------------------------------
      1          6           0       -4.870199    0.116201   -0.435732
      2          6           0       -4.929292   -1.174526   -1.258271
      3          6           0       -3.553445   -1.511162   -1.845941
      4          6           0       -2.547213   -1.635369   -0.706324
      5          6           0       -2.434264   -0.306547    0.094717
      6          6           0       -3.817074    0.029725    0.673213
      7          1           0       -3.587891   -2.438225   -2.429733
      8          1           0       -5.261354   -2.003357   -0.619377
      9          1           0       -5.660729   -1.082082   -2.067935
     10          1           0       -4.613212    0.951548   -1.102323
     11          1           0       -5.855756    0.335959   -0.011569
     12          1           0       -2.866708   -2.428055   -0.024290
     13          1           0       -2.213703    0.466810   -0.656329
     14          1           0       -4.096930   -0.733846    1.410144
     15          1           0       -3.735699    0.989507    1.197409
     16          1           0       -3.264212   -0.696393   -2.523961
     17          7           0       -1.185788   -2.016935   -1.148886
     18          6           0       -0.568967   -1.344192   -2.147569
     19          6           0       -0.435232   -2.765829   -0.306847
     20          6           0        0.784735   -1.379437   -2.322073
     21          1           0       -1.208567   -0.752147   -2.789393
     22          6           0        0.923760   -2.845659   -0.414428
     23          1           0       -0.973848   -3.255171    0.497565
     24          6           0        1.601737   -2.069042   -1.383775
     25          1           0        1.219628   -0.824270   -3.142724
     26          1           0        1.456341   -3.416042    0.333565
     27          7           0        2.938509   -1.975811   -1.397832
     28          6           0        3.729952   -2.459829   -0.259650
     29          1           0        3.674089   -3.549771   -0.184311
     30          1           0        3.334970   -2.016598    0.665281
     31          6           0        3.636559   -0.905102   -2.125510
     32          1           0        3.897638   -1.242947   -3.135863
     33          1           0        2.995250   -0.021868   -2.186673
     34          7           0       -1.307160   -0.271491    1.002860
     35         16           0       -1.271176   -1.198567    2.280901
     36          8           0       -2.275493   -2.285650    2.268726
     37          8           0        0.124971   -1.658440    2.516145
     38          6           0       -1.062554    2.860617   -0.165485
     39          6           0       -0.368291    2.176151   -1.169518
     40          6           0       -0.924331    2.058456   -2.441386
     41          6           0       -2.188446    2.581172   -2.716929
     42          6           0       -2.894253    3.235009   -1.709590
     43          6           0       -2.327833    3.375336   -0.444622
     44          1           0        0.583130    1.701972   -0.934538
     45          1           0       -0.368308    1.549152   -3.225369
     46          1           0       -2.621588    2.480368   -3.707700
     47          1           0       -3.885038    3.634748   -1.904870
     48          1           0       -2.878664    3.882161    0.344676
     49          8           0        0.242268    1.889190    1.636099
     50          1           0       -0.286926    1.087297    1.349040
     51          6           0        2.439970    0.642429    1.204709
     52          8           0        2.109074    0.206666    0.115583
     53          8           0        2.227908    0.006698    2.345735
     54          1           0        1.519666   -0.686485    2.237772
     55          6           0        3.192893    1.938967    1.391149
     56          1           0        2.701272    2.475071    2.208380
     57          1           0        4.208688    1.698301    1.735389
     58          6           0       -0.459313    3.022051    1.214080
     59          1           0       -1.257911    3.299035    1.922090
     60          1           0        0.256548    3.857385    1.204569
     61          6           0       -1.628288   -0.151657    3.688865
     62          1           0       -0.913943    0.674702    3.659072
     63          1           0       -2.650459    0.218532    3.588598
     64          1           0       -1.514386   -0.735539    4.603170
     65          6           0        3.229309    2.781698    0.122587
     66          1           0        3.655351    2.192078   -0.698242
     67          1           0        2.199509    3.010576   -0.174064
     68          6           0        4.020025    4.073394    0.306012
     69          1           0        4.047919    4.657236   -0.618589
     70          1           0        3.572182    4.699607    1.084767
     71          1           0        5.053703    3.864716    0.602792
     72          6           0        5.138705   -1.957567   -0.563651
     73          1           0        5.735764   -1.849009    0.344020
     74          1           0        5.652146   -2.655165   -1.233163
     75          6           0        4.876826   -0.626129   -1.271747
     76          1           0        4.626639    0.140840   -0.533364
     77          1           0        5.722619   -0.276568   -1.867326
 ---------------------------------------------------------------------

 SCF Done:  E(RM062X) =  -1991.38829566     A.U. after   15 cycles

 The electronic state is 1-A.
 Alpha  occ. eigenvalues --  -90.10332 -19.63388 -19.60096 -19.59176 -19.58535
 Alpha  occ. eigenvalues --  -19.58329 -14.84794 -14.80487 -14.69357 -10.65500
 Alpha  occ. eigenvalues --  -10.63220 -10.62405 -10.61502 -10.59128 -10.59072
 Alpha  occ. eigenvalues --  -10.59034 -10.57822 -10.57417 -10.56802 -10.56660
 Alpha  occ. eigenvalues --  -10.56018 -10.55739 -10.55537 -10.54984 -10.54925
 Alpha  occ. eigenvalues --  -10.54875 -10.54601 -10.54560 -10.54502 -10.53807
 Alpha  occ. eigenvalues --  -10.53645 -10.53566 -10.53214 -10.53154 -10.52657
 Alpha  occ. eigenvalues --  -10.52618  -8.41295  -6.33532  -6.33440  -6.33360
 Alpha  occ. eigenvalues --   -1.19137  -1.17850  -1.12930  -1.10262  -1.09865
 Alpha  occ. eigenvalues --   -1.09127  -1.06116  -0.97529  -0.95276  -0.94783
 Alpha  occ. eigenvalues --   -0.92183  -0.89843  -0.88573  -0.88126  -0.85028
 Alpha  occ. eigenvalues --   -0.84930  -0.83656  -0.83507  -0.83300  -0.80159
 Alpha  occ. eigenvalues --   -0.79195  -0.76340  -0.75646  -0.74684  -0.70935
 Alpha  occ. eigenvalues --   -0.70200  -0.69136  -0.68704  -0.68352  -0.68027
 Alpha  occ. eigenvalues --   -0.65848  -0.64729  -0.63933  -0.63433  -0.61608
 Alpha  occ. eigenvalues --   -0.60260  -0.59382  -0.59010  -0.58350  -0.56162
 Alpha  occ. eigenvalues --   -0.55460  -0.55177  -0.55076  -0.54137  -0.53715
 Alpha  occ. eigenvalues --   -0.53443  -0.53066  -0.52456  -0.51947  -0.51704
 Alpha  occ. eigenvalues --   -0.51119  -0.50980  -0.50610  -0.50119  -0.49831
 Alpha  occ. eigenvalues --   -0.49588  -0.49521  -0.48814  -0.48339  -0.47992
 Alpha  occ. eigenvalues --   -0.47802  -0.47177  -0.46998  -0.46980  -0.45912
 Alpha  occ. eigenvalues --   -0.45761  -0.45233  -0.43945  -0.43652  -0.43429
 Alpha  occ. eigenvalues --   -0.42782  -0.42549  -0.42218  -0.41977  -0.41887
 Alpha  occ. eigenvalues --   -0.41159  -0.40873  -0.40550  -0.39902  -0.39546
 Alpha  occ. eigenvalues --   -0.39361  -0.39231  -0.38835  -0.38387  -0.37918
 Alpha  occ. eigenvalues --   -0.37311  -0.36214  -0.35839  -0.35344  -0.35125
 Alpha  occ. eigenvalues --   -0.34363  -0.33085  -0.32051  -0.31690  -0.31497
 Alpha  occ. eigenvalues --   -0.29872  -0.28878  -0.28317  -0.27427  -0.25381
 Alpha virt. eigenvalues --   -0.01026   0.00659   0.03252   0.03775   0.09041
 Alpha virt. eigenvalues --    0.10163   0.10904   0.11813   0.12972   0.13527
 Alpha virt. eigenvalues --    0.13870   0.14272   0.15041   0.15483   0.15791

 Mulliken charges:
               1
     1  C   -0.303909
     2  C   -0.304179
     3  C   -0.309615
     4  C   -0.073231
     5  C    0.063246
     6  C   -0.305055
     7  H    0.166197
     8  H    0.160973
     9  H    0.159123
    10  H    0.145999
    11  H    0.156729
    12  H    0.212431
    13  H    0.141359
    14  H    0.179324
    15  H    0.149804
    16  H    0.150328
    17  N   -0.424157
    18  C    0.099508
    19  C    0.084034
    20  C   -0.227579
    21  H    0.204840
    22  C   -0.226620
    23  H    0.263967
    24  C    0.427965
    25  H    0.188048
    26  H    0.207224
    27  N   -0.528457
    28  C   -0.157969
    29  H    0.178350
    30  H    0.199107
    31  C   -0.146752
    32  H    0.169574
    33  H    0.195325
    34  N   -0.756694
    35  S    1.249435
    36  O   -0.646057
    37  O   -0.670209
    38  C    0.048663
    39  C   -0.176783
    40  C   -0.187362
    41  C   -0.169759
    42  C   -0.161760
    43  C   -0.198404
    44  H    0.204250
    45  H    0.139144
    46  H    0.156466
    47  H    0.161926
    48  H    0.157258
    49  O   -0.713652
    50  H    0.482567
    51  C    0.650691
    52  O   -0.522436
    53  O   -0.646139
    54  H    0.485611
    55  C   -0.368983
    56  H    0.201539
    57  H    0.164465
    58  C   -0.065489
    59  H    0.127867
    60  H    0.154654
    61  C   -0.657935
    62  H    0.221157
    63  H    0.187593
    64  H    0.207483
    65  C   -0.287687
    66  H    0.144264
    67  H    0.164259
    68  C   -0.480332
    69  H    0.158746
    70  H    0.158431
    71  H    0.150795
    72  C   -0.337182
    73  H    0.184291
    74  H    0.169985
    75  C   -0.335840
    76  H    0.182077
    77  H    0.173150
 Sum of Mulliken charges =  -0.00000

 Dipole moment (field-independent basis, Debye):
    X=              1.5430    Y=             -0.3371    Z=             -6.5694  Tot=              6.7566
 Quadrupole moment (field-independent basis, Debye-Ang):
   XX=           -198.5363   YY=           -222.7940   ZZ=           -222.1780
   XY=            -11.8482   XZ=             -0.7920   YZ=             12.4963

 Normal termination of Gaussian 16 at Thu Feb  7 23:51:02 2019.
