 Gaussian 16, Revision A.03,
 Gaussian 16:  ES64L-G16RevA.03 25-Dec-2016

 ------------------------------------------
 #p M062X/6-31G* em=gd3 force int=ultrafine
 ------------------------------------------

 -----
 Title
 -----
 Symbolic Z-matrix:
 Charge =  0 Multiplicity = 1

                         Standard orientation:
 ---------------------------------------------------------------------
 Center     Atomic      Atomic             Coordinates (Angstroms)
 Number     Number       Type             X           Y           Z
 ---------------------------------------------------------------------
      1          6           0       -4.782515    0.252649   -0.738624
      2          6           0       -4.889086   -1.080393   -1.485151
      3          6           0       -3.520032   -1.514791   -2.021955
      4          6           0       -2.549211   -1.630628   -0.852341
      5          6           0       -2.398615   -0.271834   -0.119252
      6          6           0       -3.766626    0.180557    0.405560
      7          1           0       -3.584308   -2.468154   -2.557507
      8          1           0       -5.272848   -1.853702   -0.806873
      9          1           0       -5.599833   -0.999960   -2.313650
     10          1           0       -4.473398    1.035096   -1.444081
     11          1           0       -5.762925    0.542418   -0.346581
     12          1           0       -2.929359   -2.368882   -0.139292
     13          1           0       -2.075106    0.461241   -0.869760
     14          1           0       -4.117002   -0.519767    1.170703
     15          1           0       -3.645401    1.163880    0.871556
     16          1           0       -3.172960   -0.752454   -2.732361
     17          7           0       -1.194132   -2.087870   -1.223312
     18          6           0       -0.508495   -1.469026   -2.219875
     19          6           0       -0.494915   -2.787676   -0.289323
     20          6           0        0.850021   -1.495770   -2.291758
     21          1           0       -1.104082   -0.926207   -2.943197
     22          6           0        0.864231   -2.832431   -0.275955
     23          1           0       -1.087784   -3.253720    0.490157
     24          6           0        1.601214   -2.079345   -1.228485
     25          1           0        1.339389   -0.985989   -3.110263
     26          1           0        1.350642   -3.342427    0.543584
     27          7           0        2.919184   -1.936067   -1.138153
     28          6           0        3.644725   -2.255714    0.101549
     29          1           0        3.547694   -3.318436    0.340696
     30          1           0        3.224897   -1.642911    0.913614
     31          6           0        3.640037   -0.941569   -1.941289
     32          1           0        3.889935   -1.361871   -2.923278
     33          1           0        3.004364   -0.060999   -2.071720
     34          7           0       -1.320724   -0.280213    0.857104
     35         16           0       -1.416525   -1.058334    2.284347
     36          8           0       -2.595362   -1.930570    2.267329
     37          8           0       -0.120823   -1.681740    2.570444
     38          6           0       -0.670260    2.710583    0.007306
     39          6           0       -0.201491    2.249107   -1.232781
     40          6           0       -1.009687    2.309111   -2.365776
     41          6           0       -2.305921    2.820814   -2.291680
     42          6           0       -2.787455    3.270918   -1.066007
     43          6           0       -1.970993    3.217590    0.064280
     44          1           0        0.779316    1.792019   -1.281680
     45          1           0       -0.619605    1.958856   -3.318933
     46          1           0       -2.931060    2.871637   -3.178981
     47          1           0       -3.795100    3.669758   -0.987611
     48          1           0       -2.353842    3.584943    1.014775
     49          8           0        0.661757    1.630489    1.879434
     50          1           0       -0.322218   -0.041237    0.556855
     51          6           0        1.773225    0.874199    1.235389
     52          8           0        1.339170    0.251513    0.157042
     53          8           0        2.171092    0.008650    2.284476
     54          1           0        1.449752   -0.641242    2.369724
     55          6           0        2.995791    1.816607    1.064563
     56          1           0        2.984079    2.556384    1.875069
     57          1           0        3.875919    1.188675    1.253730
     58          6           0        0.199844    2.802193    1.263749
     59          1           0       -0.404436    3.309440    2.026868
     60          1           0        1.041444    3.476172    1.047077
     61          6           0       -1.652409    0.218096    3.499099
     62          1           0       -0.793663    0.887707    3.401849
     63          1           0       -2.588905    0.731555    3.275090
     64          1           0       -1.692371   -0.257079    4.480316
     65          6           0        3.172797    2.502721   -0.286858
     66          1           0        3.088607    1.749484   -1.078392
     67          1           0        2.369393    3.222136   -0.480421
     68          6           0        4.517214    3.222313   -0.386856
     69          1           0        4.646350    3.708331   -1.358979
     70          1           0        4.605554    3.991730    0.387617
     71          1           0        5.350070    2.523305   -0.246034
     72          6           0        5.079038   -1.858540   -0.232512
     73          1           0        5.664143   -1.654833    0.666224
     74          1           0        5.572008   -2.658775   -0.795144
     75          6           0        4.886693   -0.619296   -1.111113
     76          1           0        4.675213    0.245300   -0.477192
     77          1           0        5.752182   -0.388430   -1.735829
 ---------------------------------------------------------------------

 SCF Done:  E(RM062X) =  -1991.35899632     A.U. after   14 cycles

 The electronic state is 1-A.
 Alpha  occ. eigenvalues --  -90.14020 -19.61634 -19.61629 -19.58822 -19.56761
 Alpha  occ. eigenvalues --  -19.51408 -14.85104 -14.80463 -14.75393 -10.63359
 Alpha  occ. eigenvalues --  -10.62726 -10.62347 -10.62019 -10.60629 -10.59174
 Alpha  occ. eigenvalues --  -10.58796 -10.57867 -10.57867 -10.57020 -10.56847
 Alpha  occ. eigenvalues --  -10.56649 -10.55585 -10.55577 -10.55235 -10.55120
 Alpha  occ. eigenvalues --  -10.54701 -10.54693 -10.54586 -10.54424 -10.54275
 Alpha  occ. eigenvalues --  -10.54197 -10.54133 -10.53080 -10.51710 -10.51603
 Alpha  occ. eigenvalues --  -10.49829  -8.44999  -6.37213  -6.37193  -6.37037
 Alpha  occ. eigenvalues --   -1.21851  -1.13682  -1.13432  -1.10094  -1.09364
 Alpha  occ. eigenvalues --   -1.05910  -1.01545  -0.99442  -0.95654  -0.94876
 Alpha  occ. eigenvalues --   -0.93445  -0.90202  -0.88757  -0.85939  -0.85800
 Alpha  occ. eigenvalues --   -0.84745  -0.84612  -0.84366  -0.82963  -0.82576
 Alpha  occ. eigenvalues --   -0.76628  -0.76386  -0.75825  -0.74379  -0.72677
 Alpha  occ. eigenvalues --   -0.71533  -0.68362  -0.68298  -0.67874  -0.67122
 Alpha  occ. eigenvalues --   -0.66744  -0.65159  -0.64856  -0.63519  -0.60567
 Alpha  occ. eigenvalues --   -0.60403  -0.59790  -0.58780  -0.57863  -0.57517
 Alpha  occ. eigenvalues --   -0.57104  -0.56409  -0.55657  -0.55162  -0.54165
 Alpha  occ. eigenvalues --   -0.53411  -0.52610  -0.52373  -0.52325  -0.51826
 Alpha  occ. eigenvalues --   -0.51502  -0.51106  -0.50951  -0.49833  -0.49584
 Alpha  occ. eigenvalues --   -0.49160  -0.48794  -0.48216  -0.48105  -0.48049
 Alpha  occ. eigenvalues --   -0.47601  -0.47409  -0.46884  -0.46468  -0.46080
 Alpha  occ. eigenvalues --   -0.44940  -0.44627  -0.44045  -0.43861  -0.43239
 Alpha  occ. eigenvalues --   -0.42412  -0.42066  -0.41616  -0.41452  -0.41222
 Alpha  occ. eigenvalues --   -0.40868  -0.40423  -0.40022  -0.39871  -0.39569
 Alpha  occ. eigenvalues --   -0.39224  -0.39031  -0.38401  -0.37848  -0.37575
 Alpha  occ. eigenvalues --   -0.37330  -0.36733  -0.36552  -0.35659  -0.34867
 Alpha  occ. eigenvalues --   -0.34325  -0.33855  -0.31796  -0.30924  -0.29662
 Alpha  occ. eigenvalues --   -0.28876  -0.28488  -0.27522  -0.25006  -0.24543
 Alpha virt. eigenvalues --   -0.01346   0.00544   0.03674   0.03900   0.10266
 Alpha virt. eigenvalues --    0.11075   0.11501   0.12057   0.13215   0.13526
 Alpha virt. eigenvalues --    0.14258   0.14685   0.14858   0.15427   0.15610

 Mulliken charges:
               1
     1  C   -0.306042
     2  C   -0.306806
     3  C   -0.310653
     4  C   -0.058648
     5  C    0.056423
     6  C   -0.311532
     7  H    0.173736
     8  H    0.162961
     9  H    0.164940
    10  H    0.150175
    11  H    0.162799
    12  H    0.208292
    13  H    0.172141
    14  H    0.194090
    15  H    0.163216
    16  H    0.153478
    17  N   -0.433657
    18  C    0.071116
    19  C    0.065802
    20  C   -0.206634
    21  H    0.207242
    22  C   -0.209895
    23  H    0.245858
    24  C    0.453712
    25  H    0.190509
    26  H    0.211735
    27  N   -0.531124
    28  C   -0.178472
    29  H    0.169995
    30  H    0.240144
    31  C   -0.154264
    32  H    0.169047
    33  H    0.199893
    34  N   -0.817500
    35  S    1.254232
    36  O   -0.611218
    37  O   -0.610088
    38  C    0.093865
    39  C   -0.176040
    40  C   -0.188485
    41  C   -0.170229
    42  C   -0.163551
    43  C   -0.211974
    44  H    0.200824
    45  H    0.141906
    46  H    0.154265
    47  H    0.157843
    48  H    0.151523
    49  O   -0.547681
    50  H    0.450023
    51  C    0.728899
    52  O   -0.724334
    53  O   -0.718172
    54  H    0.445960
    55  C   -0.337102
    56  H    0.150680
    57  H    0.146751
    58  C   -0.096206
    59  H    0.141478
    60  H    0.146460
    61  C   -0.662565
    62  H    0.269520
    63  H    0.196358
    64  H    0.217312
    65  C   -0.295838
    66  H    0.142220
    67  H    0.147223
    68  C   -0.476821
    69  H    0.149704
    70  H    0.156542
    71  H    0.144196
    72  C   -0.332011
    73  H    0.187473
    74  H    0.164044
    75  C   -0.344780
    76  H    0.193386
    77  H    0.172325
 Sum of Mulliken charges =  -0.00000

 Dipole moment (field-independent basis, Debye):
    X=             -1.8802    Y=             -2.0827    Z=             -6.4925  Tot=              7.0729
 Quadrupole moment (field-independent basis, Debye-Ang):
   XX=           -204.2359   YY=           -222.9788   ZZ=           -220.1864
   XY=            -12.1046   XZ=             -4.9424   YZ=             10.4245

 Normal termination of Gaussian 16 at Thu Feb  7 18:08:04 2019.
