 Gaussian 16, Revision A.03,
 Gaussian 16:  ES64L-G16RevA.03 25-Dec-2016

 ------------------------------------------
 #p M062X/6-31G* em=gd3 force int=ultrafine
 ------------------------------------------

 -----
 Title
 -----
 Symbolic Z-matrix:
 Charge =  0 Multiplicity = 1

                         Standard orientation:
 ---------------------------------------------------------------------
 Center     Atomic      Atomic             Coordinates (Angstroms)
 Number     Number       Type             X           Y           Z
 ---------------------------------------------------------------------
      1          6           0       -4.864827    0.265493   -0.468336
      2          6           0       -4.975980   -1.020857   -1.292119
      3          6           0       -3.613988   -1.411950   -1.879186
      4          6           0       -2.613668   -1.583653   -0.740060
      5          6           0       -2.456564   -0.268792    0.075834
      6          6           0       -3.824944    0.129073    0.648118
      7          1           0       -3.686119   -2.331222   -2.471608
      8          1           0       -5.342640   -1.835604   -0.654166
      9          1           0       -5.701922   -0.897825   -2.102720
     10          1           0       -4.564454    1.088179   -1.132720
     11          1           0       -5.842370    0.531119   -0.051991
     12          1           0       -2.956443   -2.376119   -0.067713
     13          1           0       -2.197907    0.500081   -0.668312
     14          1           0       -4.145190   -0.618071    1.384900
     15          1           0       -3.699980    1.085093    1.170566
     16          1           0       -3.291084   -0.604111   -2.550260
     17          7           0       -1.260062   -1.994276   -1.184637
     18          6           0       -0.623260   -1.322727   -2.172568
     19          6           0       -0.524071   -2.750965   -0.336241
     20          6           0        0.731758   -1.372554   -2.333685
     21          1           0       -1.247408   -0.716499   -2.816325
     22          6           0        0.835093   -2.848041   -0.432128
     23          1           0       -1.074616   -3.236651    0.462407
     24          6           0        1.533007   -2.078591   -1.393421
     25          1           0        1.180526   -0.813024   -3.143973
     26          1           0        1.352293   -3.424497    0.321935
     27          7           0        2.871841   -2.004433   -1.396742
     28          6           0        3.644049   -2.491839   -0.245772
     29          1           0        3.569069   -3.579573   -0.160465
     30          1           0        3.249107   -2.032581    0.671235
     31          6           0        3.591256   -0.938156   -2.112657
     32          1           0        3.857607   -1.274219   -3.121911
     33          1           0        2.963132   -0.045719   -2.175558
     34          7           0       -1.331426   -0.292838    0.981592
     35         16           0       -1.320456   -1.191090    2.282997
     36          8           0       -2.385468   -2.217027    2.310356
     37          8           0        0.057578   -1.711730    2.494571
     38          6           0       -0.880176    2.818087   -0.119101
     39          6           0       -0.259079    2.142813   -1.177666
     40          6           0       -0.875807    2.096616   -2.426489
     41          6           0       -2.127448    2.681594   -2.625378
     42          6           0       -2.761672    3.321720   -1.563813
     43          6           0       -2.134554    3.388901   -0.322335
     44          1           0        0.683887    1.625608   -1.007393
     45          1           0       -0.378024    1.597571   -3.255380
     46          1           0       -2.606516    2.639088   -3.599018
     47          1           0       -3.742104    3.768934   -1.696593
     48          1           0       -2.626036    3.882913    0.512347
     49          8           0        0.290807    1.696632    1.686947
     50          1           0       -0.296574    0.955090    1.328633
     51          6           0        2.439926    0.591149    1.167285
     52          8           0        2.092366    0.179654    0.075117
     53          8           0        2.279706   -0.092635    2.291694
     54          1           0        1.546875   -0.757139    2.189889
     55          6           0        3.170901    1.898746    1.368565
     56          1           0        2.634056    2.438302    2.155516
     57          1           0        4.169972    1.676817    1.767905
     58          6           0       -0.230541    2.912236    1.244703
     59          1           0       -0.965070    3.319833    1.957838
     60          1           0        0.604422    3.628857    1.209081
     61          6           0       -1.575833   -0.081506    3.666867
     62          1           0       -0.800424    0.684940    3.592854
     63          1           0       -2.567490    0.366096    3.576334
     64          1           0       -1.484196   -0.642773    4.597572
     65          6           0        3.268425    2.730750    0.093403
     66          1           0        3.670860    2.112950   -0.718161
     67          1           0        2.261422    3.020675   -0.228087
     68          6           0        4.133527    3.974062    0.281117
     69          1           0        4.226132    4.540375   -0.650185
     70          1           0        3.708281    4.641224    1.038302
     71          1           0        5.142333    3.701368    0.609675
     72          6           0        5.063422   -2.014934   -0.539558
     73          1           0        5.656546   -1.918016    0.372057
     74          1           0        5.568101   -2.720141   -1.207617
     75          6           0        4.828673   -0.678769   -1.247616
     76          1           0        4.586542    0.090499   -0.509321
     77          1           0        5.684541   -0.340159   -1.835075
 ---------------------------------------------------------------------

 SCF Done:  E(RM062X) =  -1991.38379361     A.U. after   15 cycles

 The electronic state is 1-A.
 Alpha  occ. eigenvalues --  -90.10247 -19.63620 -19.60186 -19.58797 -19.58353
 Alpha  occ. eigenvalues --  -19.58294 -14.84791 -14.80427 -14.69285 -10.65761
 Alpha  occ. eigenvalues --  -10.63210 -10.62428 -10.61582 -10.59222 -10.59078
 Alpha  occ. eigenvalues --  -10.58912 -10.57826 -10.57366 -10.56767 -10.56711
 Alpha  occ. eigenvalues --  -10.55944 -10.55697 -10.55616 -10.55067 -10.54999
 Alpha  occ. eigenvalues --  -10.54923 -10.54647 -10.54606 -10.54513 -10.53953
 Alpha  occ. eigenvalues --  -10.53594 -10.53472 -10.53435 -10.53378 -10.52869
 Alpha  occ. eigenvalues --  -10.52625  -8.41202  -6.33438  -6.33348  -6.33269
 Alpha  occ. eigenvalues --   -1.19328  -1.17718  -1.12922  -1.10123  -1.10009
 Alpha  occ. eigenvalues --   -1.09070  -1.06007  -0.97533  -0.95353  -0.94737
 Alpha  occ. eigenvalues --   -0.92188  -0.89818  -0.88557  -0.88329  -0.85092
 Alpha  occ. eigenvalues --   -0.84840  -0.83702  -0.83537  -0.83283  -0.80034
 Alpha  occ. eigenvalues --   -0.79386  -0.76313  -0.75611  -0.74664  -0.70944
 Alpha  occ. eigenvalues --   -0.70261  -0.69334  -0.68663  -0.68342  -0.68094
 Alpha  occ. eigenvalues --   -0.65978  -0.64757  -0.63920  -0.63515  -0.61604
 Alpha  occ. eigenvalues --   -0.60269  -0.59367  -0.59098  -0.58354  -0.56157
 Alpha  occ. eigenvalues --   -0.55652  -0.55289  -0.55159  -0.54401  -0.53877
 Alpha  occ. eigenvalues --   -0.53460  -0.53050  -0.52614  -0.51863  -0.51646
 Alpha  occ. eigenvalues --   -0.51070  -0.50949  -0.50619  -0.50021  -0.49828
 Alpha  occ. eigenvalues --   -0.49708  -0.49522  -0.48773  -0.48313  -0.48022
 Alpha  occ. eigenvalues --   -0.47772  -0.47230  -0.47076  -0.46986  -0.45823
 Alpha  occ. eigenvalues --   -0.45557  -0.45184  -0.43957  -0.43699  -0.43470
 Alpha  occ. eigenvalues --   -0.42946  -0.42824  -0.42154  -0.42044  -0.41829
 Alpha  occ. eigenvalues --   -0.41210  -0.40926  -0.40517  -0.39878  -0.39634
 Alpha  occ. eigenvalues --   -0.39384  -0.39330  -0.39063  -0.38401  -0.38072
 Alpha  occ. eigenvalues --   -0.37381  -0.36271  -0.35823  -0.35332  -0.35181
 Alpha  occ. eigenvalues --   -0.34258  -0.32990  -0.31979  -0.31675  -0.31305
 Alpha  occ. eigenvalues --   -0.29952  -0.28810  -0.28333  -0.27320  -0.25344
 Alpha virt. eigenvalues --   -0.01062   0.00682   0.03128   0.03699   0.08829
 Alpha virt. eigenvalues --    0.10165   0.10962   0.11790   0.12961   0.13518
 Alpha virt. eigenvalues --    0.13794   0.14314   0.14987   0.15466   0.15864

 Mulliken charges:
               1
     1  C   -0.303927
     2  C   -0.304307
     3  C   -0.309864
     4  C   -0.071771
     5  C    0.067892
     6  C   -0.304763
     7  H    0.166985
     8  H    0.161351
     9  H    0.159266
    10  H    0.145022
    11  H    0.157042
    12  H    0.209578
    13  H    0.140378
    14  H    0.180984
    15  H    0.150240
    16  H    0.149860
    17  N   -0.424132
    18  C    0.097331
    19  C    0.089934
    20  C   -0.226335
    21  H    0.204558
    22  C   -0.227207
    23  H    0.260125
    24  C    0.426714
    25  H    0.187498
    26  H    0.207792
    27  N   -0.526676
    28  C   -0.159023
    29  H    0.178175
    30  H    0.198021
    31  C   -0.145706
    32  H    0.169549
    33  H    0.194004
    34  N   -0.767559
    35  S    1.246736
    36  O   -0.639392
    37  O   -0.668691
    38  C    0.051282
    39  C   -0.176270
    40  C   -0.188722
    41  C   -0.169500
    42  C   -0.160673
    43  C   -0.199784
    44  H    0.204287
    45  H    0.139702
    46  H    0.157126
    47  H    0.162377
    48  H    0.158502
    49  O   -0.717526
    50  H    0.485900
    51  C    0.662564
    52  O   -0.521035
    53  O   -0.646039
    54  H    0.483301
    55  C   -0.373858
    56  H    0.202672
    57  H    0.166660
    58  C   -0.063119
    59  H    0.126736
    60  H    0.145038
    61  C   -0.663544
    62  H    0.229544
    63  H    0.185473
    64  H    0.205828
    65  C   -0.290486
    66  H    0.146634
    67  H    0.162165
    68  C   -0.480536
    69  H    0.159674
    70  H    0.158691
    71  H    0.151989
    72  C   -0.336211
    73  H    0.184342
    74  H    0.169644
    75  C   -0.335597
    76  H    0.180344
    77  H    0.172744
 Sum of Mulliken charges =  -0.00000

 Dipole moment (field-independent basis, Debye):
    X=              1.6276    Y=              0.0223    Z=             -6.7293  Tot=              6.9234
 Quadrupole moment (field-independent basis, Debye-Ang):
   XX=           -199.9402   YY=           -222.4533   ZZ=           -222.8146
   XY=            -11.5952   XZ=              0.6484   YZ=             12.9757

 Normal termination of Gaussian 16 at Thu Feb  7 22:04:30 2019.
