 Gaussian 16, Revision A.03,
 Gaussian 16:  ES64L-G16RevA.03 25-Dec-2016

 ------------------------------------------
 #p M062X/6-31G* em=gd3 force int=ultrafine
 ------------------------------------------

 -----
 Title
 -----
 Symbolic Z-matrix:
 Charge =  0 Multiplicity = 1

                         Standard orientation:
 ---------------------------------------------------------------------
 Center     Atomic      Atomic             Coordinates (Angstroms)
 Number     Number       Type             X           Y           Z
 ---------------------------------------------------------------------
      1          6           0       -4.869711    0.167886   -0.446127
      2          6           0       -4.949421   -1.124335   -1.264493
      3          6           0       -3.578807   -1.485246   -1.850195
      4          6           0       -2.573266   -1.620340   -0.710992
      5          6           0       -2.442820   -0.292001    0.088392
      6          6           0       -3.820563    0.066353    0.665407
      7          1           0       -3.627937   -2.413453   -2.431089
      8          1           0       -5.296082   -1.945360   -0.623342
      9          1           0       -5.678282   -1.022311   -2.075379
     10          1           0       -4.596117    0.996175   -1.114972
     11          1           0       -5.852265    0.406935   -0.025487
     12          1           0       -2.900735   -2.408954   -0.027569
     13          1           0       -2.211331    0.476873   -0.664218
     14          1           0       -4.113893   -0.690919    1.403489
     15          1           0       -3.724534    1.025838    1.187547
     16          1           0       -3.277419   -0.677483   -2.531227
     17          7           0       -1.215653   -2.015789   -1.154088
     18          6           0       -0.592590   -1.348580   -2.152932
     19          6           0       -0.469776   -2.763567   -0.306774
     20          6           0        0.761456   -1.389722   -2.323391
     21          1           0       -1.227405   -0.755306   -2.798365
     22          6           0        0.889230   -2.849438   -0.410290
     23          1           0       -1.012084   -3.247357    0.498558
     24          6           0        1.573437   -2.079853   -1.380903
     25          1           0        1.200640   -0.837570   -3.143811
     26          1           0        1.416910   -3.417410    0.342955
     27          7           0        2.910861   -1.992787   -1.391738
     28          6           0        3.695604   -2.472643   -0.246874
     29          1           0        3.634573   -3.561702   -0.164390
     30          1           0        3.299174   -2.021427    0.673502
     31          6           0        3.615944   -0.927424   -2.121054
     32          1           0        3.878633   -1.269934   -3.129320
     33          1           0        2.978894   -0.041485   -2.187576
     34          7           0       -1.313958   -0.272050    0.993314
     35         16           0       -1.283105   -1.186657    2.281095
     36          8           0       -2.305298   -2.256680    2.285711
     37          8           0        0.108453   -1.663688    2.508791
     38          6           0       -0.994143    2.852239   -0.152812
     39          6           0       -0.329593    2.163443   -1.174579
     40          6           0       -0.911241    2.064732   -2.436607
     41          6           0       -2.171921    2.609805   -2.684417
     42          6           0       -2.849696    3.263913   -1.658563
     43          6           0       -2.257305    3.385133   -0.403589
     44          1           0        0.619385    1.673495   -0.962554
     45          1           0       -0.378198    1.554100   -3.235636
     46          1           0       -2.624122    2.525544   -3.668182
     47          1           0       -3.838049    3.679603   -1.830974
     48          1           0       -2.784910    3.892061    0.401114
     49          8           0        0.261878    1.832462    1.656957
     50          1           0       -0.291123    1.053867    1.343854
     51          6           0        2.441642    0.625578    1.186508
     52          8           0        2.097619    0.198338    0.098450
     53          8           0        2.252862   -0.026153    2.323975
     54          1           0        1.533415   -0.707455    2.221107
     55          6           0        3.188419    1.925646    1.373614
     56          1           0        2.678274    2.467022    2.176384
     57          1           0        4.197559    1.692971    1.741355
     58          6           0       -0.366039    3.000463    1.216620
     59          1           0       -1.136751    3.343463    1.926269
     60          1           0        0.403541    3.786529    1.183762
     61          6           0       -1.608728   -0.115903    3.679101
     62          1           0       -0.873976    0.691745    3.634237
     63          1           0       -2.621632    0.279203    3.580015
     64          1           0       -1.503650   -0.691150    4.599859
     65          6           0        3.248059    2.757356    0.097986
     66          1           0        3.669191    2.153463   -0.714814
     67          1           0        2.225801    3.003139   -0.211374
     68          6           0        4.061662    4.035717    0.275527
     69          1           0        4.110962    4.608220   -0.655252
     70          1           0        3.619286    4.679952    1.042635
     71          1           0        5.087769    3.809071    0.585051
     72          6           0        5.107844   -1.978580   -0.547872
     73          1           0        5.701145   -1.866932    0.361916
     74          1           0        5.621162   -2.682368   -1.210837
     75          6           0        4.855308   -0.650265   -1.265051
     76          1           0        4.608337    0.122566   -0.531951
     77          1           0        5.704749   -0.308792   -1.860133
 ---------------------------------------------------------------------

 SCF Done:  E(RM062X) =  -1991.38702689     A.U. after   15 cycles

 The electronic state is 1-A.
 Alpha  occ. eigenvalues --  -90.10304 -19.63439 -19.60126 -19.59058 -19.58481
 Alpha  occ. eigenvalues --  -19.58317 -14.84785 -14.80464 -14.69328 -10.65573
 Alpha  occ. eigenvalues --  -10.63210 -10.62410 -10.61512 -10.59117 -10.59113
 Alpha  occ. eigenvalues --  -10.58988 -10.57822 -10.57403 -10.56780 -10.56676
 Alpha  occ. eigenvalues --  -10.55990 -10.55724 -10.55565 -10.55006 -10.54943
 Alpha  occ. eigenvalues --  -10.54890 -10.54617 -10.54578 -10.54507 -10.53855
 Alpha  occ. eigenvalues --  -10.53577 -10.53556 -10.53293 -10.53252 -10.52733
 Alpha  occ. eigenvalues --  -10.52622  -8.41265  -6.33502  -6.33410  -6.33330
 Alpha  occ. eigenvalues --   -1.19173  -1.17809  -1.12924  -1.10197  -1.09901
 Alpha  occ. eigenvalues --   -1.09109  -1.06080  -0.97524  -0.95300  -0.94763
 Alpha  occ. eigenvalues --   -0.92184  -0.89833  -0.88564  -0.88198  -0.85048
 Alpha  occ. eigenvalues --   -0.84903  -0.83669  -0.83514  -0.83298  -0.80121
 Alpha  occ. eigenvalues --   -0.79261  -0.76328  -0.75632  -0.74678  -0.70935
 Alpha  occ. eigenvalues --   -0.70217  -0.69196  -0.68689  -0.68344  -0.68050
 Alpha  occ. eigenvalues --   -0.65895  -0.64738  -0.63923  -0.63447  -0.61599
 Alpha  occ. eigenvalues --   -0.60257  -0.59372  -0.59038  -0.58349  -0.56157
 Alpha  occ. eigenvalues --   -0.55497  -0.55209  -0.55105  -0.54208  -0.53763
 Alpha  occ. eigenvalues --   -0.53444  -0.53058  -0.52517  -0.51925  -0.51684
 Alpha  occ. eigenvalues --   -0.51099  -0.50968  -0.50612  -0.50078  -0.49832
 Alpha  occ. eigenvalues --   -0.49599  -0.49537  -0.48796  -0.48327  -0.47993
 Alpha  occ. eigenvalues --   -0.47808  -0.47190  -0.47034  -0.46975  -0.45886
 Alpha  occ. eigenvalues --   -0.45686  -0.45221  -0.43943  -0.43660  -0.43441
 Alpha  occ. eigenvalues --   -0.42808  -0.42661  -0.42193  -0.42018  -0.41872
 Alpha  occ. eigenvalues --   -0.41170  -0.40895  -0.40536  -0.39892  -0.39574
 Alpha  occ. eigenvalues --   -0.39361  -0.39264  -0.38908  -0.38396  -0.37977
 Alpha  occ. eigenvalues --   -0.37320  -0.36221  -0.35819  -0.35338  -0.35145
 Alpha  occ. eigenvalues --   -0.34330  -0.33053  -0.32025  -0.31652  -0.31476
 Alpha  occ. eigenvalues --   -0.29898  -0.28860  -0.28319  -0.27386  -0.25362
 Alpha virt. eigenvalues --   -0.01035   0.00669   0.03202   0.03754   0.08966
 Alpha virt. eigenvalues --    0.10170   0.10913   0.11814   0.12957   0.13550
 Alpha virt. eigenvalues --    0.13858   0.14294   0.14998   0.15480   0.15824

 Mulliken charges:
               1
     1  C   -0.303931
     2  C   -0.304183
     3  C   -0.309637
     4  C   -0.072944
     5  C    0.064625
     6  C   -0.304939
     7  H    0.166493
     8  H    0.161055
     9  H    0.159151
    10  H    0.145659
    11  H    0.156820
    12  H    0.211673
    13  H    0.141084
    14  H    0.179494
    15  H    0.150131
    16  H    0.150041
    17  N   -0.423969
    18  C    0.098742
    19  C    0.084999
    20  C   -0.227128
    21  H    0.204691
    22  C   -0.226450
    23  H    0.263116
    24  C    0.427559
    25  H    0.187846
    26  H    0.207483
    27  N   -0.527903
    28  C   -0.158324
    29  H    0.178312
    30  H    0.198703
    31  C   -0.146395
    32  H    0.169589
    33  H    0.194753
    34  N   -0.759608
    35  S    1.249096
    36  O   -0.644358
    37  O   -0.669860
    38  C    0.049179
    39  C   -0.176354
    40  C   -0.187854
    41  C   -0.169604
    42  C   -0.161396
    43  C   -0.198937
    44  H    0.204713
    45  H    0.139220
    46  H    0.156636
    47  H    0.162054
    48  H    0.157763
    49  O   -0.715385
    50  H    0.483911
    51  C    0.654583
    52  O   -0.521632
    53  O   -0.646696
    54  H    0.485153
    55  C   -0.370658
    56  H    0.202363
    57  H    0.165144
    58  C   -0.064133
    59  H    0.127446
    60  H    0.151031
    61  C   -0.659756
    62  H    0.223918
    63  H    0.186946
    64  H    0.206926
    65  C   -0.288668
    66  H    0.145093
    67  H    0.163002
    68  C   -0.480344
    69  H    0.159061
    70  H    0.158422
    71  H    0.151311
    72  C   -0.336948
    73  H    0.184415
    74  H    0.169906
    75  C   -0.335857
    76  H    0.181517
    77  H    0.173026
 Sum of Mulliken charges =  -0.00000

 Dipole moment (field-independent basis, Debye):
    X=              1.5478    Y=             -0.2445    Z=             -6.6273  Tot=              6.8101
 Quadrupole moment (field-independent basis, Debye-Ang):
   XX=           -198.9971   YY=           -222.5560   ZZ=           -222.4488
   XY=            -11.7015   XZ=             -0.3411   YZ=             12.6241

 Normal termination of Gaussian 16 at Thu Feb  7 23:11:23 2019.
