 Gaussian 16, Revision A.03,
 Gaussian 16:  ES64L-G16RevA.03 25-Dec-2016

 ------------------------------------------
 #p M062X/6-31G* em=gd3 force int=ultrafine
 ------------------------------------------

 -----
 Title
 -----
 Symbolic Z-matrix:
 Charge =  0 Multiplicity = 1

                         Standard orientation:
 ---------------------------------------------------------------------
 Center     Atomic      Atomic             Coordinates (Angstroms)
 Number     Number       Type             X           Y           Z
 ---------------------------------------------------------------------
      1          6           0       -4.852270    0.479533   -0.542830
      2          6           0       -5.036374   -0.834848   -1.307435
      3          6           0       -3.704565   -1.314797   -1.896521
      4          6           0       -2.697618   -1.491163   -0.764865
      5          6           0       -2.477911   -0.155001   -0.013771
      6          6           0       -3.804437    0.345453    0.566671
      7          1           0       -3.824913   -2.254959   -2.445168
      8          1           0       -5.430425   -1.603747   -0.629988
      9          1           0       -5.769105   -0.711109   -2.111012
     10          1           0       -4.531414    1.261128   -1.244708
     11          1           0       -5.807290    0.802541   -0.116059
     12          1           0       -3.076935   -2.232767   -0.054557
     13          1           0       -2.151378    0.579959   -0.760588
     14          1           0       -4.156667   -0.349773    1.335880
     15          1           0       -3.622778    1.315842    1.041646
     16          1           0       -3.349305   -0.554804   -2.605378
     17          7           0       -1.374062   -1.985004   -1.198284
     18          6           0       -0.692650   -1.344586   -2.186103
     19          6           0       -0.677407   -2.767412   -0.331693
     20          6           0        0.658991   -1.432674   -2.312069
     21          1           0       -1.284795   -0.728834   -2.851275
     22          6           0        0.676063   -2.891194   -0.383636
     23          1           0       -1.261607   -3.237918    0.451600
     24          6           0        1.419962   -2.129677   -1.326011
     25          1           0        1.145254   -0.895010   -3.115003
     26          1           0        1.163673   -3.475269    0.383817
     27          7           0        2.745793   -2.077245   -1.288764
     28          6           0        3.486903   -2.550010   -0.108880
     29          1           0        3.349123   -3.626265    0.028124
     30          1           0        3.116662   -1.997469    0.766798
     31          6           0        3.499920   -1.038603   -2.009028
     32          1           0        3.750840   -1.390360   -3.017566
     33          1           0        2.894446   -0.130169   -2.057043
     34          7           0       -1.370895   -0.213321    0.928018
     35         16           0       -1.380258   -1.043199    2.337869
     36          8           0       -2.616739   -1.827783    2.375463
     37          8           0       -0.108996   -1.753413    2.482477
     38          6           0       -0.527863    2.642357   -0.091872
     39          6           0       -0.054167    2.067269   -1.280649
     40          6           0       -0.813460    2.130341   -2.448686
     41          6           0       -2.058780    2.757955   -2.461164
     42          6           0       -2.540139    3.329853   -1.285610
     43          6           0       -1.777364    3.270487   -0.119230
     44          1           0        0.886590    1.523870   -1.248185
     45          1           0       -0.421103    1.689622   -3.363276
     46          1           0       -2.642871    2.808560   -3.375985
     47          1           0       -3.506654    3.826273   -1.276286
     48          1           0       -2.162134    3.725912    0.791202
     49          8           0        0.743108    1.479024    1.757081
     50          1           0       -0.419100    0.062480    0.625321
     51          6           0        1.974084    0.793049    1.189834
     52          8           0        1.681206    0.189028    0.070501
     53          8           0        2.293894   -0.083597    2.257025
     54          1           0        1.587777   -0.754727    2.245015
     55          6           0        3.130802    1.821764    1.170278
     56          1           0        2.990459    2.532225    1.995404
     57          1           0        4.044209    1.263771    1.412996
     58          6           0        0.281195    2.681547    1.208063
     59          1           0       -0.375294    3.123125    1.970850
     60          1           0        1.110271    3.392927    1.076957
     61          6           0       -1.418782    0.198586    3.608377
     62          1           0       -0.528243    0.814561    3.452100
     63          1           0       -2.337395    0.776521    3.495336
     64          1           0       -1.394972   -0.314452    4.571338
     65          6           0        3.345395    2.565107   -0.145948
     66          1           0        3.576053    1.839607   -0.935099
     67          1           0        2.427245    3.065663   -0.473243
     68          6           0        4.468058    3.595386   -0.032244
     69          1           0        4.648322    4.110865   -0.980685
     70          1           0        4.222788    4.354073    0.719574
     71          1           0        5.405673    3.120815    0.278684
     72          6           0        4.926076   -2.166908   -0.432273
     73          1           0        5.539791   -2.095969    0.467481
     74          1           0        5.375403   -2.905643   -1.105558
     75          6           0        4.740826   -0.823749   -1.139589
     76          1           0        4.502506   -0.059746   -0.394274
     77          1           0        5.608840   -0.505650   -1.720934
 ---------------------------------------------------------------------

 SCF Done:  E(RM062X) =  -1991.35664678     A.U. after   15 cycles

 The electronic state is 1-A.
 Alpha  occ. eigenvalues --  -90.14685 -19.62254 -19.62145 -19.58509 -19.56625
 Alpha  occ. eigenvalues --  -19.50598 -14.85297 -14.80246 -14.76716 -10.63317
 Alpha  occ. eigenvalues --  -10.62751 -10.62246 -10.61955 -10.61030 -10.59770
 Alpha  occ. eigenvalues --  -10.58057 -10.57914 -10.57783 -10.57140 -10.56916
 Alpha  occ. eigenvalues --  -10.56877 -10.56012 -10.55848 -10.55039 -10.54942
 Alpha  occ. eigenvalues --  -10.54854 -10.54847 -10.54689 -10.54609 -10.54479
 Alpha  occ. eigenvalues --  -10.54395 -10.54387 -10.52957 -10.51175 -10.51107
 Alpha  occ. eigenvalues --  -10.49422  -8.45658  -6.37882  -6.37845  -6.37693
 Alpha  occ. eigenvalues --   -1.22477  -1.13620  -1.13083  -1.10722  -1.09128
 Alpha  occ. eigenvalues --   -1.05690  -1.02355  -0.99186  -0.95886  -0.95050
 Alpha  occ. eigenvalues --   -0.93564  -0.90288  -0.88708  -0.86351  -0.85392
 Alpha  occ. eigenvalues --   -0.84882  -0.84815  -0.83947  -0.83114  -0.83009
 Alpha  occ. eigenvalues --   -0.76685  -0.75956  -0.75721  -0.74234  -0.73159
 Alpha  occ. eigenvalues --   -0.71800  -0.68255  -0.68142  -0.67859  -0.67469
 Alpha  occ. eigenvalues --   -0.66548  -0.65428  -0.64799  -0.63488  -0.60499
 Alpha  occ. eigenvalues --   -0.60325  -0.59708  -0.59582  -0.57788  -0.57691
 Alpha  occ. eigenvalues --   -0.57292  -0.56495  -0.55824  -0.55130  -0.54299
 Alpha  occ. eigenvalues --   -0.53617  -0.52951  -0.52655  -0.52472  -0.52004
 Alpha  occ. eigenvalues --   -0.51643  -0.50874  -0.50353  -0.49931  -0.49362
 Alpha  occ. eigenvalues --   -0.49140  -0.48994  -0.48294  -0.48123  -0.47872
 Alpha  occ. eigenvalues --   -0.47765  -0.47579  -0.47111  -0.46224  -0.45952
 Alpha  occ. eigenvalues --   -0.45095  -0.44816  -0.44298  -0.43809  -0.43273
 Alpha  occ. eigenvalues --   -0.42588  -0.42218  -0.41159  -0.41098  -0.40939
 Alpha  occ. eigenvalues --   -0.40736  -0.40539  -0.39957  -0.39818  -0.39301
 Alpha  occ. eigenvalues --   -0.39205  -0.39035  -0.38417  -0.38275  -0.37838
 Alpha  occ. eigenvalues --   -0.37284  -0.36596  -0.36405  -0.36033  -0.34968
 Alpha  occ. eigenvalues --   -0.34439  -0.34168  -0.31864  -0.31222  -0.29846
 Alpha  occ. eigenvalues --   -0.28937  -0.28645  -0.27745  -0.24142  -0.23952
 Alpha virt. eigenvalues --   -0.01401   0.00411   0.03413   0.03686   0.10121
 Alpha virt. eigenvalues --    0.10674   0.11412   0.12449   0.13173   0.13266
 Alpha virt. eigenvalues --    0.14139   0.14366   0.14769   0.15376   0.15569

 Mulliken charges:
               1
     1  C   -0.306389
     2  C   -0.307621
     3  C   -0.310257
     4  C   -0.058731
     5  C    0.056565
     6  C   -0.309239
     7  H    0.175179
     8  H    0.163110
     9  H    0.166641
    10  H    0.150929
    11  H    0.164859
    12  H    0.207139
    13  H    0.175607
    14  H    0.194807
    15  H    0.163402
    16  H    0.155915
    17  N   -0.435762
    18  C    0.072130
    19  C    0.068773
    20  C   -0.204421
    21  H    0.204954
    22  C   -0.213179
    23  H    0.243453
    24  C    0.448653
    25  H    0.192533
    26  H    0.210818
    27  N   -0.521798
    28  C   -0.168479
    29  H    0.167974
    30  H    0.225500
    31  C   -0.149931
    32  H    0.162234
    33  H    0.206107
    34  N   -0.800923
    35  S    1.246477
    36  O   -0.605078
    37  O   -0.596682
    38  C    0.067150
    39  C   -0.193745
    40  C   -0.191335
    41  C   -0.172599
    42  C   -0.165014
    43  C   -0.208385
    44  H    0.225086
    45  H    0.140473
    46  H    0.155208
    47  H    0.158715
    48  H    0.152504
    49  O   -0.567807
    50  H    0.439142
    51  C    0.719313
    52  O   -0.713512
    53  O   -0.712503
    54  H    0.435583
    55  C   -0.338922
    56  H    0.145097
    57  H    0.149969
    58  C   -0.084630
    59  H    0.135204
    60  H    0.151337
    61  C   -0.664548
    62  H    0.275749
    63  H    0.198785
    64  H    0.220211
    65  C   -0.287346
    66  H    0.136477
    67  H    0.142758
    68  C   -0.473951
    69  H    0.147927
    70  H    0.151261
    71  H    0.147437
    72  C   -0.333297
    73  H    0.185955
    74  H    0.161044
    75  C   -0.340625
    76  H    0.202434
    77  H    0.168130
 Sum of Mulliken charges =  -0.00000

 Dipole moment (field-independent basis, Debye):
    X=             -3.3370    Y=             -2.1161    Z=             -5.9624  Tot=              7.1529
 Quadrupole moment (field-independent basis, Debye-Ang):
   XX=           -207.6345   YY=           -221.6487   ZZ=           -219.5835
   XY=            -12.9975   XZ=             -4.4750   YZ=             10.4077

 Normal termination of Gaussian 16 at Thu Feb  7 11:56:15 2019.
