 Gaussian 16, Revision A.03,
 Gaussian 16:  ES64L-G16RevA.03 25-Dec-2016

 ------------------------------------------
 #p M062X/6-31G* em=gd3 force int=ultrafine
 ------------------------------------------

 -----
 Title
 -----
 Symbolic Z-matrix:
 Charge =  0 Multiplicity = 1

                         Standard orientation:
 ---------------------------------------------------------------------
 Center     Atomic      Atomic             Coordinates (Angstroms)
 Number     Number       Type             X           Y           Z
 ---------------------------------------------------------------------
      1          6           0       -4.865869    0.039822   -0.417747
      2          6           0       -4.890439   -1.238040   -1.261980
      3          6           0       -3.506228   -1.526793   -1.855175
      4          6           0       -2.501148   -1.651534   -0.714928
      5          6           0       -2.418175   -0.334219    0.106883
      6          6           0       -3.808569   -0.035207    0.687877
      7          1           0       -3.516160   -2.441202   -2.459405
      8          1           0       -5.198419   -2.086565   -0.636945
      9          1           0       -5.625202   -1.152052   -2.069222
     10          1           0       -4.635094    0.893383   -1.070611
     11          1           0       -5.856058    0.223505    0.012861
     12          1           0       -2.807303   -2.461668   -0.047922
     13          1           0       -2.211442    0.453856   -0.632195
     14          1           0       -4.070094   -0.813358    1.416213
     15          1           0       -3.748642    0.920155    1.223488
     16          1           0       -3.235576   -0.689684   -2.513569
     17          7           0       -1.131794   -1.999662   -1.159619
     18          6           0       -0.525704   -1.299349   -2.145470
     19          6           0       -0.371731   -2.758448   -0.335284
     20          6           0        0.827546   -1.318533   -2.325771
     21          1           0       -1.173335   -0.698666   -2.771068
     22          6           0        0.987390   -2.824508   -0.450542
     23          1           0       -0.903145   -3.268724    0.460836
     24          6           0        1.654053   -2.023227   -1.407736
     25          1           0        1.254597   -0.742171   -3.135860
     26          1           0        1.529000   -3.407590    0.281049
     27          7           0        2.989932   -1.922293   -1.430219
     28          6           0        3.796537   -2.436719   -0.316933
     29          1           0        3.743614   -3.528586   -0.271985
     30          1           0        3.412588   -2.020553    0.625099
     31          6           0        3.676907   -0.831149   -2.137444
     32          1           0        3.930876   -1.142876   -3.158098
     33          1           0        3.031371    0.050368   -2.170875
     34          7           0       -1.296097   -0.289595    1.022619
     35         16           0       -1.256051   -1.245144    2.278922
     36          8           0       -2.238428   -2.351043    2.232177
     37          8           0        0.145090   -1.686501    2.520169
     38          6           0       -1.192451    2.845039   -0.175569
     39          6           0       -0.429731    2.200310   -1.154618
     40          6           0       -0.923405    2.078372   -2.452129
     41          6           0       -2.189789    2.562055   -2.780327
     42          6           0       -2.959963    3.186129   -1.800555
     43          6           0       -2.458099    3.328398   -0.509079
     44          1           0        0.525144    1.755657   -0.879937
     45          1           0       -0.315914    1.594865   -3.214011
     46          1           0       -2.574584    2.456463   -3.790467
     47          1           0       -3.951765    3.559247   -2.039343
     48          1           0       -3.061901    3.809513    0.257648
     49          8           0        0.191931    1.952272    1.609543
     50          1           0       -0.274180    1.102573    1.358828
     51          6           0        2.433688    0.664867    1.255213
     52          8           0        2.143655    0.219266    0.157708
     53          8           0        2.170943    0.046667    2.393716
     54          1           0        1.492136   -0.672861    2.264474
     55          6           0        3.187891    1.957911    1.458506
     56          1           0        2.725246    2.470144    2.306705
     57          1           0        4.215596    1.707217    1.759105
     58          6           0       -0.662393    2.994256    1.236310
     59          1           0       -1.516084    3.093195    1.926909
     60          1           0       -0.084257    3.924519    1.312741
     61          6           0       -1.651850   -0.242601    3.708626
     62          1           0       -0.961163    0.604119    3.707659
     63          1           0       -2.683393    0.100856    3.608694
     64          1           0       -1.529748   -0.846182    4.609077
     65          6           0        3.182291    2.836984    0.214996
     66          1           0        3.601897    2.278855   -0.630910
     67          1           0        2.140784    3.053005   -0.047413
     68          6           0        3.951546    4.137885    0.422652
     69          1           0        3.941199    4.754995   -0.480478
     70          1           0        3.511496    4.725537    1.235148
     71          1           0        4.997330    3.942462    0.684324
     72          6           0        5.199783   -1.922117   -0.625775
     73          1           0        5.811615   -1.842263    0.274961
     74          1           0        5.703251   -2.596768   -1.325952
     75          6           0        4.922891   -0.569713   -1.286961
     76          1           0        4.672196    0.171041   -0.521888
     77          1           0        5.760657   -0.195109   -1.878632
 ---------------------------------------------------------------------

 SCF Done:  E(RM062X) =  -1991.39014626     A.U. after   15 cycles

 The electronic state is 1-A.
 Alpha  occ. eigenvalues --  -90.10387 -19.63388 -19.60107 -19.59310 -19.58615
 Alpha  occ. eigenvalues --  -19.58368 -14.84816 -14.80529 -14.69426 -10.65450
 Alpha  occ. eigenvalues --  -10.63243 -10.62389 -10.61525 -10.59158 -10.59122
 Alpha  occ. eigenvalues --  -10.59024 -10.57818 -10.57403 -10.56850 -10.56649
 Alpha  occ. eigenvalues --  -10.56078 -10.55775 -10.55492 -10.54967 -10.54918
 Alpha  occ. eigenvalues --  -10.54859 -10.54576 -10.54537 -10.54489 -10.53776
 Alpha  occ. eigenvalues --  -10.53745 -10.53557 -10.53128 -10.52959 -10.52637
 Alpha  occ. eigenvalues --  -10.52521  -8.41353  -6.33591  -6.33498  -6.33418
 Alpha  occ. eigenvalues --   -1.19131  -1.17924  -1.12948  -1.10336  -1.09854
 Alpha  occ. eigenvalues --   -1.09171  -1.06189  -0.97558  -0.95243  -0.94826
 Alpha  occ. eigenvalues --   -0.92193  -0.89860  -0.88599  -0.88006  -0.85016
 Alpha  occ. eigenvalues --   -0.84964  -0.83648  -0.83503  -0.83300  -0.80214
 Alpha  occ. eigenvalues --   -0.79097  -0.76367  -0.75669  -0.74681  -0.70948
 Alpha  occ. eigenvalues --   -0.70194  -0.69049  -0.68740  -0.68368  -0.67988
 Alpha  occ. eigenvalues --   -0.65751  -0.64724  -0.63957  -0.63432  -0.61648
 Alpha  occ. eigenvalues --   -0.60280  -0.59406  -0.58953  -0.58369  -0.56175
 Alpha  occ. eigenvalues --   -0.55467  -0.55159  -0.55064  -0.54034  -0.53666
 Alpha  occ. eigenvalues --   -0.53436  -0.53083  -0.52349  -0.51978  -0.51729
 Alpha  occ. eigenvalues --   -0.51165  -0.51010  -0.50612  -0.50227  -0.49830
 Alpha  occ. eigenvalues --   -0.49622  -0.49446  -0.48848  -0.48367  -0.48011
 Alpha  occ. eigenvalues --   -0.47770  -0.47171  -0.46972  -0.46897  -0.45948
 Alpha  occ. eigenvalues --   -0.45867  -0.45251  -0.43965  -0.43653  -0.43423
 Alpha  occ. eigenvalues --   -0.42755  -0.42436  -0.42272  -0.41917  -0.41880
 Alpha  occ. eigenvalues --   -0.41159  -0.40828  -0.40594  -0.39923  -0.39519
 Alpha  occ. eigenvalues --   -0.39373  -0.39183  -0.38718  -0.38375  -0.37802
 Alpha  occ. eigenvalues --   -0.37363  -0.36265  -0.35917  -0.35376  -0.35109
 Alpha  occ. eigenvalues --   -0.34415  -0.33148  -0.32114  -0.31699  -0.31509
 Alpha  occ. eigenvalues --   -0.29833  -0.28884  -0.28323  -0.27532  -0.25442
 Alpha virt. eigenvalues --   -0.01022   0.00643   0.03333   0.03815   0.09091
 Alpha virt. eigenvalues --    0.10123   0.10942   0.11754   0.13007   0.13422
 Alpha virt. eigenvalues --    0.13817   0.14204   0.15202   0.15530   0.15737

 Mulliken charges:
               1
     1  C   -0.303978
     2  C   -0.304209
     3  C   -0.309799
     4  C   -0.073462
     5  C    0.061978
     6  C   -0.305284
     7  H    0.165795
     8  H    0.160900
     9  H    0.159183
    10  H    0.146680
    11  H    0.156633
    12  H    0.213157
    13  H    0.141440
    14  H    0.179915
    15  H    0.148653
    16  H    0.151276
    17  N   -0.424639
    18  C    0.100531
    19  C    0.084408
    20  C   -0.228054
    21  H    0.205589
    22  C   -0.227321
    23  H    0.264164
    24  C    0.428640
    25  H    0.188287
    26  H    0.206748
    27  N   -0.529505
    28  C   -0.156829
    29  H    0.178442
    30  H    0.198976
    31  C   -0.147377
    32  H    0.169519
    33  H    0.196464
    34  N   -0.754829
    35  S    1.249065
    36  O   -0.647061
    37  O   -0.670882
    38  C    0.048598
    39  C   -0.177225
    40  C   -0.186983
    41  C   -0.170133
    42  C   -0.162479
    43  C   -0.197352
    44  H    0.201420
    45  H    0.139673
    46  H    0.156447
    47  H    0.161768
    48  H    0.156248
    49  O   -0.710138
    50  H    0.480107
    51  C    0.643368
    52  O   -0.523707
    53  O   -0.643763
    54  H    0.485580
    55  C   -0.366770
    56  H    0.199719
    57  H    0.163867
    58  C   -0.069031
    59  H    0.129095
    60  H    0.161284
    61  C   -0.655475
    62  H    0.218095
    63  H    0.188223
    64  H    0.208206
    65  C   -0.286904
    66  H    0.143001
    67  H    0.168519
    68  C   -0.480474
    69  H    0.158251
    70  H    0.158730
    71  H    0.149571
    72  C   -0.337475
    73  H    0.183920
    74  H    0.170103
    75  C   -0.335577
    76  H    0.183079
    77  H    0.173396
 Sum of Mulliken charges =  -0.00000

 Dipole moment (field-independent basis, Debye):
    X=              1.5801    Y=             -0.4171    Z=             -6.4877  Tot=              6.6903
 Quadrupole moment (field-independent basis, Debye-Ang):
   XX=           -197.7096   YY=           -223.7008   ZZ=           -221.5699
   XY=            -12.1861   XZ=             -1.5178   YZ=             12.2615

 Normal termination of Gaussian 16 at Fri Feb  8 01:16:27 2019.
