 Gaussian 16, Revision A.03,
 Gaussian 16:  ES64L-G16RevA.03 25-Dec-2016

 ------------------------------------------
 #p M062X/6-31G* em=gd3 force int=ultrafine
 ------------------------------------------

 -----
 Title
 -----
 Symbolic Z-matrix:
 Charge =  0 Multiplicity = 1

                         Standard orientation:
 ---------------------------------------------------------------------
 Center     Atomic      Atomic             Coordinates (Angstroms)
 Number     Number       Type             X           Y           Z
 ---------------------------------------------------------------------
      1          6           0       -4.814676    0.464876   -0.522482
      2          6           0       -5.017040   -0.847147   -1.286569
      3          6           0       -3.697120   -1.331314   -1.898843
      4          6           0       -2.675832   -1.513392   -0.781762
      5          6           0       -2.432636   -0.179596   -0.031426
      6          6           0       -3.748476    0.326653    0.569305
      7          1           0       -3.830597   -2.270646   -2.445931
      8          1           0       -5.402050   -1.616254   -0.604129
      9          1           0       -5.763235   -0.718834   -2.076954
     10          1           0       -4.504619    1.246369   -1.228897
     11          1           0       -5.761086    0.789872   -0.078215
     12          1           0       -3.050105   -2.252290   -0.066356
     13          1           0       -2.113548    0.554604   -0.782205
     14          1           0       -4.092253   -0.367727    1.342990
     15          1           0       -3.556448    1.296269    1.041363
     16          1           0       -3.349826   -0.572526   -2.613008
     17          7           0       -1.359347   -2.013314   -1.229875
     18          6           0       -0.679160   -1.355257   -2.206759
     19          6           0       -0.660172   -2.798216   -0.367530
     20          6           0        0.674403   -1.424860   -2.322633
     21          1           0       -1.274319   -0.738395   -2.868632
     22          6           0        0.695202   -2.905474   -0.410244
     23          1           0       -1.244360   -3.280481    0.408731
     24          6           0        1.434783   -2.118851   -1.334101
     25          1           0        1.160638   -0.872582   -3.115510
     26          1           0        1.184577   -3.489858    0.355845
     27          7           0        2.758881   -2.037277   -1.279092
     28          6           0        3.500999   -2.504318   -0.098275
     29          1           0        3.372217   -3.581705    0.037536
     30          1           0        3.124338   -1.957232    0.778383
     31          6           0        3.494324   -0.976815   -1.984603
     32          1           0        3.734997   -1.302270   -3.004236
     33          1           0        2.875427   -0.075859   -2.007534
     34          7           0       -1.310366   -0.253449    0.892119
     35         16           0       -1.340957   -1.076265    2.303575
     36          8           0       -2.568332   -1.876879    2.331438
     37          8           0       -0.065079   -1.775403    2.470411
     38          6           0       -0.550729    2.657291   -0.054520
     39          6           0       -0.077291    2.119018   -1.261426
     40          6           0       -0.848967    2.186739   -2.420329
     41          6           0       -2.109402    2.784040   -2.407999
     42          6           0       -2.591793    3.319012   -1.216342
     43          6           0       -1.814987    3.254829   -0.059269
     44          1           0        0.873557    1.596243   -1.255619
     45          1           0       -0.454791    1.774197   -3.347071
     46          1           0       -2.703888    2.839058   -3.315826
     47          1           0       -3.569932    3.791201   -1.186019
     48          1           0       -2.200876    3.683890    0.863447
     49          8           0        0.737874    1.533746    1.821427
     50          1           0       -0.342821   -0.020706    0.567308
     51          6           0        1.911160    0.809934    1.217723
     52          8           0        1.547377    0.195529    0.117000
     53          8           0        2.264795   -0.062901    2.275061
     54          1           0        1.568210   -0.743439    2.281758
     55          6           0        3.097091    1.803529    1.133512
     56          1           0        3.009151    2.520847    1.960213
     57          1           0        4.002156    1.220664    1.346949
     58          6           0        0.271740    2.717770    1.237432
     59          1           0       -0.375488    3.179392    1.995203
     60          1           0        1.101566    3.423557    1.081194
     61          6           0       -1.418372    0.164500    3.573821
     62          1           0       -0.530497    0.789093    3.440512
     63          1           0       -2.337542    0.736551    3.436189
     64          1           0       -1.418107   -0.349013    4.536770
     65          6           0        3.289503    2.540922   -0.189116
     66          1           0        3.470460    1.812583   -0.988601
     67          1           0        2.380209    3.075374   -0.483681
     68          6           0        4.449744    3.532233   -0.110254
     69          1           0        4.614945    4.045934   -1.062311
     70          1           0        4.253864    4.294549    0.652234
     71          1           0        5.380791    3.025337    0.167991
     72          6           0        4.937281   -2.111222   -0.423237
     73          1           0        5.553272   -2.039243    0.474835
     74          1           0        5.388210   -2.846084   -1.099466
     75          6           0        4.745854   -0.766954   -1.127861
     76          1           0        4.525342   -0.001115   -0.379450
     77          1           0        5.607953   -0.451143   -1.719034
 ---------------------------------------------------------------------

 SCF Done:  E(RM062X) =  -1991.35762399     A.U. after   14 cycles

 The electronic state is 1-A.
 Alpha  occ. eigenvalues --  -90.14399 -19.61982 -19.61931 -19.58550 -19.56636
 Alpha  occ. eigenvalues --  -19.50943 -14.85249 -14.80380 -14.76242 -10.63397
 Alpha  occ. eigenvalues --  -10.62786 -10.62258 -10.62080 -10.60866 -10.59548
 Alpha  occ. eigenvalues --  -10.58273 -10.57986 -10.57942 -10.57186 -10.56890
 Alpha  occ. eigenvalues --  -10.56774 -10.55743 -10.55723 -10.55035 -10.54909
 Alpha  occ. eigenvalues --  -10.54878 -10.54768 -10.54662 -10.54617 -10.54445
 Alpha  occ. eigenvalues --  -10.54424 -10.54349 -10.53009 -10.51349 -10.51310
 Alpha  occ. eigenvalues --  -10.49552  -8.45375  -6.37595  -6.37566  -6.37409
 Alpha  occ. eigenvalues --   -1.22208  -1.13623  -1.13326  -1.10460  -1.09283
 Alpha  occ. eigenvalues --   -1.05781  -1.02004  -0.99207  -0.95824  -0.95008
 Alpha  occ. eigenvalues --   -0.93547  -0.90324  -0.88758  -0.86084  -0.85607
 Alpha  occ. eigenvalues --   -0.84835  -0.84763  -0.84132  -0.83068  -0.82829
 Alpha  occ. eigenvalues --   -0.76696  -0.76128  -0.75803  -0.74275  -0.72944
 Alpha  occ. eigenvalues --   -0.71735  -0.68312  -0.68173  -0.67926  -0.67327
 Alpha  occ. eigenvalues --   -0.66680  -0.65298  -0.64845  -0.63530  -0.60515
 Alpha  occ. eigenvalues --   -0.60392  -0.59723  -0.59306  -0.57771  -0.57670
 Alpha  occ. eigenvalues --   -0.57253  -0.56470  -0.55816  -0.55150  -0.54238
 Alpha  occ. eigenvalues --   -0.53599  -0.52745  -0.52557  -0.52503  -0.51931
 Alpha  occ. eigenvalues --   -0.51576  -0.50954  -0.50558  -0.49918  -0.49452
 Alpha  occ. eigenvalues --   -0.49147  -0.48915  -0.48214  -0.48126  -0.47910
 Alpha  occ. eigenvalues --   -0.47744  -0.47518  -0.46992  -0.46350  -0.46073
 Alpha  occ. eigenvalues --   -0.44962  -0.44731  -0.44220  -0.43825  -0.43277
 Alpha  occ. eigenvalues --   -0.42579  -0.42176  -0.41305  -0.41221  -0.41020
 Alpha  occ. eigenvalues --   -0.40874  -0.40544  -0.39985  -0.39764  -0.39242
 Alpha  occ. eigenvalues --   -0.39217  -0.39101  -0.38406  -0.38097  -0.37698
 Alpha  occ. eigenvalues --   -0.37345  -0.36710  -0.36488  -0.35869  -0.34938
 Alpha  occ. eigenvalues --   -0.34407  -0.34062  -0.31721  -0.31206  -0.29791
 Alpha  occ. eigenvalues --   -0.28865  -0.28600  -0.27704  -0.24518  -0.24180
 Alpha virt. eigenvalues --   -0.01497   0.00379   0.03507   0.03723   0.10117
 Alpha virt. eigenvalues --    0.10844   0.11561   0.12308   0.13143   0.13400
 Alpha virt. eigenvalues --    0.14219   0.14415   0.14742   0.15262   0.15590

 Mulliken charges:
               1
     1  C   -0.306326
     2  C   -0.307348
     3  C   -0.309362
     4  C   -0.059797
     5  C    0.055573
     6  C   -0.310561
     7  H    0.174513
     8  H    0.163047
     9  H    0.166011
    10  H    0.150657
    11  H    0.164121
    12  H    0.208435
    13  H    0.174196
    14  H    0.194639
    15  H    0.163394
    16  H    0.154999
    17  N   -0.432352
    18  C    0.068620
    19  C    0.065684
    20  C   -0.202072
    21  H    0.205852
    22  C   -0.210428
    23  H    0.244160
    24  C    0.446831
    25  H    0.192407
    26  H    0.211249
    27  N   -0.524542
    28  C   -0.169394
    29  H    0.169268
    30  H    0.226765
    31  C   -0.153262
    32  H    0.163880
    33  H    0.207022
    34  N   -0.810201
    35  S    1.250129
    36  O   -0.608701
    37  O   -0.602565
    38  C    0.078089
    39  C   -0.188332
    40  C   -0.190576
    41  C   -0.172210
    42  C   -0.164151
    43  C   -0.210925
    44  H    0.217908
    45  H    0.140260
    46  H    0.154957
    47  H    0.158528
    48  H    0.152288
    49  O   -0.556423
    50  H    0.445297
    51  C    0.721023
    52  O   -0.718742
    53  O   -0.716413
    54  H    0.441003
    55  C   -0.338006
    56  H    0.147287
    57  H    0.150697
    58  C   -0.087720
    59  H    0.137773
    60  H    0.148635
    61  C   -0.663909
    62  H    0.276435
    63  H    0.196988
    64  H    0.218387
    65  C   -0.290016
    66  H    0.133793
    67  H    0.145134
    68  C   -0.473407
    69  H    0.148456
    70  H    0.152898
    71  H    0.146706
    72  C   -0.332496
    73  H    0.186516
    74  H    0.162311
    75  C   -0.342180
    76  H    0.199412
    77  H    0.170182
 Sum of Mulliken charges =  -0.00000

 Dipole moment (field-independent basis, Debye):
    X=             -2.8875    Y=             -2.1173    Z=             -6.1976  Tot=              7.1576
 Quadrupole moment (field-independent basis, Debye-Ang):
   XX=           -206.5496   YY=           -221.9441   ZZ=           -220.1679
   XY=            -12.7138   XZ=             -4.8324   YZ=             10.2166

 Normal termination of Gaussian 16 at Thu Feb  7 13:06:25 2019.
