 Gaussian 16, Revision A.03,
 Gaussian 16:  ES64L-G16RevA.03 25-Dec-2016

 ------------------------------------------
 #p M062X/6-31G* em=gd3 force int=ultrafine
 ------------------------------------------

 -----
 Title
 -----
 Symbolic Z-matrix:
 Charge =  0 Multiplicity = 1

                         Standard orientation:
 ---------------------------------------------------------------------
 Center     Atomic      Atomic             Coordinates (Angstroms)
 Number     Number       Type             X           Y           Z
 ---------------------------------------------------------------------
      1          6           0       -4.849380    0.542997   -0.523836
      2          6           0       -5.026605   -0.728038   -1.359531
      3          6           0       -3.686926   -1.183330   -1.950871
      4          6           0       -2.699277   -1.433695   -0.815590
      5          6           0       -2.492897   -0.147868    0.021327
      6          6           0       -3.826992    0.337214    0.596912
      7          1           0       -3.803750   -2.088461   -2.556252
      8          1           0       -5.436175   -1.528803   -0.729874
      9          1           0       -5.744364   -0.558064   -2.168060
     10          1           0       -4.503860    1.356820   -1.176059
     11          1           0       -5.810250    0.854327   -0.101740
     12          1           0       -3.092138   -2.217682   -0.160012
     13          1           0       -2.133484    0.623910   -0.671900
     14          1           0       -4.199531   -0.393422    1.323201
     15          1           0       -3.642420    1.279188    1.126134
     16          1           0       -3.315083   -0.384775   -2.606867
     17          7           0       -1.369990   -1.905942   -1.259076
     18          6           0       -0.683921   -1.235955   -2.222706
     19          6           0       -0.676919   -2.723810   -0.423389
     20          6           0        0.666873   -1.332471   -2.357142
     21          1           0       -1.270964   -0.592334   -2.865015
     22          6           0        0.675518   -2.860396   -0.485720
     23          1           0       -1.263435   -3.224252    0.339296
     24          6           0        1.426187   -2.078809   -1.406786
     25          1           0        1.154908   -0.771137   -3.142814
     26          1           0        1.158042   -3.482680    0.254608
     27          7           0        2.754016   -2.055530   -1.383446
     28          6           0        3.492937   -2.585316   -0.226596
     29          1           0        3.345173   -3.665162   -0.134842
     30          1           0        3.129014   -2.068644    0.672666
     31          6           0        3.527563   -1.008525   -2.073424
     32          1           0        3.780035   -1.339949   -3.088431
     33          1           0        2.939972   -0.088375   -2.101293
     34          7           0       -1.409930   -0.295626    0.976728
     35         16           0       -1.440055   -1.194468    2.335596
     36          8           0       -2.667803   -1.992615    2.302268
     37          8           0       -0.163631   -1.897511    2.470334
     38          6           0       -0.537984    2.688848   -0.060366
     39          6           0       -0.033511    2.071922   -1.212988
     40          6           0       -0.734355    2.158103   -2.415465
     41          6           0       -1.954006    2.831515   -2.485846
     42          6           0       -2.468626    3.432067   -1.338242
     43          6           0       -1.760203    3.361924   -0.139096
     44          1           0        0.884225    1.488799   -1.125739
     45          1           0       -0.320924    1.696410   -3.310190
     46          1           0       -2.495221    2.894717   -3.425773
     47          1           0       -3.418799    3.957543   -1.377054
     48          1           0       -2.166519    3.834603    0.752960
     49          8           0        0.644427    1.351800    1.644100
     50          1           0       -0.542691    0.274138    0.907700
     51          6           0        2.058259    0.723430    1.194528
     52          8           0        1.940117    0.177414    0.040503
     53          8           0        2.242636   -0.159375    2.274451
     54          1           0        1.562629   -0.849098    2.165680
     55          6           0        3.110880    1.833543    1.357655
     56          1           0        2.847012    2.486183    2.199039
     57          1           0        4.039297    1.325996    1.650228
     58          6           0        0.215417    2.626510    1.263060
     59          1           0       -0.462888    2.996750    2.048199
     60          1           0        1.054817    3.336961    1.233310
     61          6           0       -1.494338   -0.011195    3.663125
     62          1           0       -0.614146    0.624982    3.525814
     63          1           0       -2.421522    0.558227    3.582609
     64          1           0       -1.447928   -0.558098    4.606127
     65          6           0        3.368649    2.641474    0.088041
     66          1           0        3.713463    1.959813   -0.697799
     67          1           0        2.437627    3.074799   -0.296241
     68          6           0        4.392100    3.751484    0.314830
     69          1           0        4.597601    4.309128   -0.604160
     70          1           0        4.034398    4.464441    1.066268
     71          1           0        5.340100    3.340772    0.679812
     72          6           0        4.936068   -2.201329   -0.531407
     73          1           0        5.546885   -2.169151    0.372682
     74          1           0        5.382357   -2.918756   -1.229275
     75          6           0        4.764718   -0.832146   -1.190619
     76          1           0        4.520562   -0.093048   -0.422340
     77          1           0        5.638845   -0.502017   -1.755968
 ---------------------------------------------------------------------

 SCF Done:  E(RM062X) =  -1991.35549778     A.U. after   15 cycles

 The electronic state is 1-A.
 Alpha  occ. eigenvalues --  -90.14660 -19.62326 -19.62007 -19.58364 -19.57288
 Alpha  occ. eigenvalues --  -19.50984 -14.85177 -14.80068 -14.76307 -10.63170
 Alpha  occ. eigenvalues --  -10.62611 -10.62401 -10.62126 -10.61059 -10.59815
 Alpha  occ. eigenvalues --  -10.57808 -10.57765 -10.57699 -10.56978 -10.56943
 Alpha  occ. eigenvalues --  -10.56861 -10.56356 -10.55850 -10.55102 -10.55058
 Alpha  occ. eigenvalues --  -10.55023 -10.54876 -10.54706 -10.54666 -10.54657
 Alpha  occ. eigenvalues --  -10.54405 -10.54090 -10.53112 -10.51128 -10.51031
 Alpha  occ. eigenvalues --  -10.49681  -8.45635  -6.37862  -6.37810  -6.37686
 Alpha  occ. eigenvalues --   -1.22456  -1.13446  -1.12789  -1.10656  -1.08900
 Alpha  occ. eigenvalues --   -1.05976  -1.02318  -1.00449  -0.95810  -0.95188
 Alpha  occ. eigenvalues --   -0.93472  -0.90116  -0.88578  -0.86487  -0.85435
 Alpha  occ. eigenvalues --   -0.84851  -0.84841  -0.83752  -0.83297  -0.83018
 Alpha  occ. eigenvalues --   -0.76568  -0.76067  -0.75564  -0.74087  -0.73215
 Alpha  occ. eigenvalues --   -0.71740  -0.68218  -0.68122  -0.67755  -0.67476
 Alpha  occ. eigenvalues --   -0.66407  -0.65467  -0.64873  -0.63332  -0.60512
 Alpha  occ. eigenvalues --   -0.60362  -0.59943  -0.59382  -0.57945  -0.57682
 Alpha  occ. eigenvalues --   -0.57164  -0.56368  -0.55626  -0.55038  -0.54369
 Alpha  occ. eigenvalues --   -0.53543  -0.53031  -0.52639  -0.52414  -0.52118
 Alpha  occ. eigenvalues --   -0.51658  -0.50846  -0.50138  -0.49943  -0.49388
 Alpha  occ. eigenvalues --   -0.49223  -0.48904  -0.48509  -0.48189  -0.48035
 Alpha  occ. eigenvalues --   -0.47693  -0.47640  -0.47146  -0.46258  -0.45859
 Alpha  occ. eigenvalues --   -0.45342  -0.45173  -0.44387  -0.44108  -0.43186
 Alpha  occ. eigenvalues --   -0.42467  -0.42332  -0.41210  -0.40902  -0.40756
 Alpha  occ. eigenvalues --   -0.40642  -0.40405  -0.40153  -0.39866  -0.39437
 Alpha  occ. eigenvalues --   -0.39089  -0.38952  -0.38709  -0.38275  -0.37737
 Alpha  occ. eigenvalues --   -0.37469  -0.36548  -0.36445  -0.36014  -0.35039
 Alpha  occ. eigenvalues --   -0.34596  -0.34301  -0.31923  -0.31238  -0.29985
 Alpha  occ. eigenvalues --   -0.29210  -0.28780  -0.27797  -0.24556  -0.24169
 Alpha virt. eigenvalues --   -0.01245   0.00573   0.03224   0.03621   0.10177
 Alpha virt. eigenvalues --    0.10604   0.11367   0.12554   0.13172   0.13328
 Alpha virt. eigenvalues --    0.14165   0.14403   0.15079   0.15534   0.15540

 Mulliken charges:
               1
     1  C   -0.306594
     2  C   -0.307783
     3  C   -0.311519
     4  C   -0.060760
     5  C    0.065801
     6  C   -0.306881
     7  H    0.175323
     8  H    0.163220
     9  H    0.166706
    10  H    0.151798
    11  H    0.164802
    12  H    0.207721
    13  H    0.174178
    14  H    0.191971
    15  H    0.160389
    16  H    0.156664
    17  N   -0.437193
    18  C    0.080939
    19  C    0.081585
    20  C   -0.211461
    21  H    0.202925
    22  C   -0.221621
    23  H    0.244165
    24  C    0.448465
    25  H    0.192105
    26  H    0.209707
    27  N   -0.518437
    28  C   -0.164044
    29  H    0.167440
    30  H    0.219638
    31  C   -0.145163
    32  H    0.160619
    33  H    0.205389
    34  N   -0.813166
    35  S    1.237333
    36  O   -0.604319
    37  O   -0.592394
    38  C    0.049546
    39  C   -0.197759
    40  C   -0.192730
    41  C   -0.172676
    42  C   -0.165074
    43  C   -0.205474
    44  H    0.235271
    45  H    0.140972
    46  H    0.156161
    47  H    0.159785
    48  H    0.154386
    49  O   -0.607239
    50  H    0.451815
    51  C    0.713131
    52  O   -0.680740
    53  O   -0.699271
    54  H    0.433395
    55  C   -0.339707
    56  H    0.145294
    57  H    0.151082
    58  C   -0.077416
    59  H    0.128908
    60  H    0.155021
    61  C   -0.666427
    62  H    0.266293
    63  H    0.200289
    64  H    0.223047
    65  C   -0.285261
    66  H    0.143047
    67  H    0.141285
    68  C   -0.475303
    69  H    0.148615
    70  H    0.149202
    71  H    0.148834
    72  C   -0.334239
    73  H    0.184218
    74  H    0.160307
    75  C   -0.338566
    76  H    0.205548
    77  H    0.164883
 Sum of Mulliken charges =  -0.00000

 Dipole moment (field-independent basis, Debye):
    X=             -3.4469    Y=             -1.4809    Z=             -5.7369  Tot=              6.8547
 Quadrupole moment (field-independent basis, Debye-Ang):
   XX=           -208.1986   YY=           -222.8834   ZZ=           -218.1032
   XY=            -13.5405   XZ=             -4.2555   YZ=             10.7712

 Normal termination of Gaussian 16 at Thu Feb  7 09:17:08 2019.
