 Gaussian 16, Revision A.03,
 Gaussian 16:  ES64L-G16RevA.03 25-Dec-2016

 ------------------------------------------
 #p M062X/6-31G* em=gd3 force int=ultrafine
 ------------------------------------------

 -----
 Title
 -----
 Symbolic Z-matrix:
 Charge =  0 Multiplicity = 1

                         Standard orientation:
 ---------------------------------------------------------------------
 Center     Atomic      Atomic             Coordinates (Angstroms)
 Number     Number       Type             X           Y           Z
 ---------------------------------------------------------------------
      1          6           0       -4.781946    0.376698   -0.592630
      2          6           0       -4.944622   -0.913438   -1.401969
      3          6           0       -3.604088   -1.353292   -2.003361
      4          6           0       -2.604004   -1.553400   -0.870669
      5          6           0       -2.394400   -0.236232   -0.078810
      6          6           0       -3.731315    0.225800    0.512072
      7          1           0       -3.710016   -2.276062   -2.583821
      8          1           0       -5.327387   -1.711380   -0.752225
      9          1           0       -5.678122   -0.773006   -2.202104
     10          1           0       -4.476738    1.186441   -1.268123
     11          1           0       -5.741973    0.668129   -0.154196
     12          1           0       -2.984256   -2.315467   -0.183395
     13          1           0       -2.076017    0.523550   -0.804126
     14          1           0       -4.074265   -0.499637    1.257361
     15          1           0       -3.568067    1.183841    1.016902
     16          1           0       -3.256932   -0.564587   -2.684514
     17          7           0       -1.271410   -2.025560   -1.300584
     18          6           0       -0.586243   -1.352787   -2.262632
     19          6           0       -0.573182   -2.797162   -0.424561
     20          6           0        0.771086   -1.392750   -2.350042
     21          1           0       -1.181048   -0.752237   -2.939750
     22          6           0        0.785164   -2.865524   -0.431750
     23          1           0       -1.164326   -3.300794    0.332631
     24          6           0        1.524322   -2.057738   -1.336601
     25          1           0        1.260213   -0.834472   -3.136575
     26          1           0        1.271516   -3.437891    0.345360
     27          7           0        2.843798   -1.933495   -1.244137
     28          6           0        3.567114   -2.337978   -0.028161
     29          1           0        3.464090   -3.413081    0.142681
     30          1           0        3.151776   -1.773300    0.819901
     31          6           0        3.567454   -0.883068   -1.971537
     32          1           0        3.820942   -1.231902   -2.980135
     33          1           0        2.931767    0.004351   -2.035673
     34          7           0       -1.287359   -0.319093    0.860581
     35         16           0       -1.354143   -1.164695    2.251390
     36          8           0       -2.544184   -2.021222    2.219817
     37          8           0       -0.057856   -1.813207    2.469268
     38          6           0       -0.631893    2.700055    0.056339
     39          6           0       -0.157607    2.236578   -1.180873
     40          6           0       -0.948721    2.326014   -2.324388
     41          6           0       -2.231446    2.871847   -2.265402
     42          6           0       -2.716614    3.328829   -1.043508
     43          6           0       -1.918736    3.243759    0.097979
     44          1           0        0.811599    1.753336   -1.218222
     45          1           0       -0.553985    1.972804   -3.274696
     46          1           0       -2.842245    2.945526   -3.161042
     47          1           0       -3.712971    3.757371   -0.976675
     48          1           0       -2.305211    3.615732    1.044960
     49          8           0        0.681035    1.565345    1.909586
     50          1           0       -0.298083   -0.069102    0.555749
     51          6           0        1.811275    0.834016    1.264318
     52          8           0        1.399040    0.226730    0.169139
     53          8           0        2.202211   -0.049463    2.299891
     54          1           0        1.501889   -0.727028    2.335270
     55          6           0        3.020892    1.798223    1.130755
     56          1           0        2.989183    2.517818    1.958780
     57          1           0        3.909205    1.180629    1.314039
     58          6           0        0.217639    2.753349    1.329393
     59          1           0       -0.404053    3.227059    2.100059
     60          1           0        1.054995    3.443760    1.150632
     61          6           0       -1.543364    0.049263    3.536156
     62          1           0       -0.683305    0.718874    3.447755
     63          1           0       -2.482573    0.579025    3.367764
     64          1           0       -1.557966   -0.476785    4.492108
     65          6           0        3.198359    2.521227   -0.201412
     66          1           0        3.135849    1.788740   -1.013358
     67          1           0        2.384209    3.230859   -0.384479
     68          6           0        4.531770    3.263154   -0.269357
     69          1           0        4.662761    3.779553   -1.225257
     70          1           0        4.602871    4.010630    0.527311
     71          1           0        5.371515    2.570400   -0.141863
     72          6           0        5.002515   -1.924026   -0.333455
     73          1           0        5.589174   -1.790511    0.577300
     74          1           0        5.491190   -2.681719   -0.955722
     75          6           0        4.810113   -0.621753   -1.114844
     76          1           0        4.589749    0.188688   -0.415752
     77          1           0        5.677021   -0.339460   -1.716027
 ---------------------------------------------------------------------

 SCF Done:  E(RM062X) =  -1991.35885410     A.U. after   14 cycles

 The electronic state is 1-A.
 Alpha  occ. eigenvalues --  -90.14090 -19.61707 -19.61689 -19.58759 -19.56736
 Alpha  occ. eigenvalues --  -19.51371 -14.85138 -14.80453 -14.75552 -10.63397
 Alpha  occ. eigenvalues --  -10.62770 -10.62316 -10.62112 -10.60676 -10.59254
 Alpha  occ. eigenvalues --  -10.58620 -10.57956 -10.57898 -10.57097 -10.56876
 Alpha  occ. eigenvalues --  -10.56663 -10.55622 -10.55580 -10.55153 -10.54954
 Alpha  occ. eigenvalues --  -10.54801 -10.54737 -10.54683 -10.54532 -10.54361
 Alpha  occ. eigenvalues --  -10.54285 -10.54243 -10.53102 -10.51613 -10.51528
 Alpha  occ. eigenvalues --  -10.49775  -8.45068  -6.37284  -6.37262  -6.37106
 Alpha  occ. eigenvalues --   -1.21919  -1.13635  -1.13489  -1.10173  -1.09351
 Alpha  occ. eigenvalues --   -1.05905  -1.01632  -0.99385  -0.95699  -0.94962
 Alpha  occ. eigenvalues --   -0.93465  -0.90260  -0.88750  -0.85900  -0.85824
 Alpha  occ. eigenvalues --   -0.84804  -0.84667  -0.84291  -0.83035  -0.82634
 Alpha  occ. eigenvalues --   -0.76647  -0.76348  -0.75831  -0.74399  -0.72730
 Alpha  occ. eigenvalues --   -0.71590  -0.68329  -0.68270  -0.67927  -0.67165
 Alpha  occ. eigenvalues --   -0.66762  -0.65207  -0.64871  -0.63519  -0.60578
 Alpha  occ. eigenvalues --   -0.60403  -0.59796  -0.58892  -0.57819  -0.57565
 Alpha  occ. eigenvalues --   -0.57143  -0.56426  -0.55731  -0.55161  -0.54174
 Alpha  occ. eigenvalues --   -0.53485  -0.52640  -0.52409  -0.52374  -0.51893
 Alpha  occ. eigenvalues --   -0.51533  -0.51066  -0.50910  -0.49849  -0.49592
 Alpha  occ. eigenvalues --   -0.49159  -0.48811  -0.48202  -0.48113  -0.48070
 Alpha  occ. eigenvalues --   -0.47636  -0.47438  -0.46897  -0.46465  -0.46094
 Alpha  occ. eigenvalues --   -0.44911  -0.44691  -0.44103  -0.43885  -0.43250
 Alpha  occ. eigenvalues --   -0.42462  -0.42094  -0.41498  -0.41406  -0.41167
 Alpha  occ. eigenvalues --   -0.40883  -0.40454  -0.40013  -0.39842  -0.39434
 Alpha  occ. eigenvalues --   -0.39255  -0.39049  -0.38455  -0.37900  -0.37582
 Alpha  occ. eigenvalues --   -0.37369  -0.36727  -0.36575  -0.35693  -0.34882
 Alpha  occ. eigenvalues --   -0.34361  -0.33905  -0.31716  -0.31009  -0.29740
 Alpha  occ. eigenvalues --   -0.28888  -0.28580  -0.27599  -0.24968  -0.24505
 Alpha virt. eigenvalues --   -0.01460   0.00456   0.03590   0.03800   0.10172
 Alpha virt. eigenvalues --    0.11046   0.11624   0.12125   0.13209   0.13550
 Alpha virt. eigenvalues --    0.14200   0.14667   0.14787   0.15298   0.15599

 Mulliken charges:
               1
     1  C   -0.306131
     2  C   -0.306947
     3  C   -0.309908
     4  C   -0.059467
     5  C    0.057215
     6  C   -0.311882
     7  H    0.173762
     8  H    0.162784
     9  H    0.165222
    10  H    0.150843
    11  H    0.163004
    12  H    0.208539
    13  H    0.172630
    14  H    0.193272
    15  H    0.163452
    16  H    0.153880
    17  N   -0.431519
    18  C    0.068936
    19  C    0.063919
    20  C   -0.203975
    21  H    0.206853
    22  C   -0.208914
    23  H    0.245775
    24  C    0.448576
    25  H    0.191211
    26  H    0.211723
    27  N   -0.527827
    28  C   -0.173898
    29  H    0.169848
    30  H    0.234082
    31  C   -0.154188
    32  H    0.167564
    33  H    0.201887
    34  N   -0.817016
    35  S    1.253950
    36  O   -0.612112
    37  O   -0.608718
    38  C    0.088770
    39  C   -0.179779
    40  C   -0.189144
    41  C   -0.170681
    42  C   -0.163658
    43  C   -0.212188
    44  H    0.205556
    45  H    0.141000
    46  H    0.154714
    47  H    0.158428
    48  H    0.152377
    49  O   -0.548425
    50  H    0.449525
    51  C    0.727223
    52  O   -0.724098
    53  O   -0.718194
    54  H    0.445667
    55  C   -0.338122
    56  H    0.149942
    57  H    0.149651
    58  C   -0.093645
    59  H    0.141089
    60  H    0.146999
    61  C   -0.662879
    62  H    0.271606
    63  H    0.196300
    64  H    0.217378
    65  C   -0.295401
    66  H    0.140595
    67  H    0.146839
    68  C   -0.475091
    69  H    0.149321
    70  H    0.155975
    71  H    0.143866
    72  C   -0.331788
    73  H    0.187544
    74  H    0.163406
    75  C   -0.343873
    76  H    0.195213
    77  H    0.171558
 Sum of Mulliken charges =  -0.00000

 Dipole moment (field-independent basis, Debye):
    X=             -2.2633    Y=             -1.8455    Z=             -6.4542  Tot=              7.0842
 Quadrupole moment (field-independent basis, Debye-Ang):
   XX=           -205.1097   YY=           -223.2565   ZZ=           -219.7495
   XY=            -12.1205   XZ=             -5.3584   YZ=             10.0544

 Normal termination of Gaussian 16 at Thu Feb  7 16:23:08 2019.
