 Gaussian 16, Revision A.03,
 Gaussian 16:  ES64L-G16RevA.03 25-Dec-2016

 ------------------------------------------
 #p M062X/6-31G* em=gd3 force int=ultrafine
 ------------------------------------------

 -----
 Title
 -----
 Symbolic Z-matrix:
 Charge =  0 Multiplicity = 1

                         Standard orientation:
 ---------------------------------------------------------------------
 Center     Atomic      Atomic             Coordinates (Angstroms)
 Number     Number       Type             X           Y           Z
 ---------------------------------------------------------------------
      1          6           0       -4.844562    0.386051   -0.504983
      2          6           0       -4.978325   -0.884230   -1.350111
      3          6           0       -3.622517   -1.289969   -1.940800
      4          6           0       -2.633406   -1.508179   -0.802403
      5          6           0       -2.456318   -0.223492    0.048304
      6          6           0       -3.815289    0.209213    0.615097
      7          1           0       -3.707701   -2.195767   -2.550968
      8          1           0       -5.361624   -1.702976   -0.727042
      9          1           0       -5.699518   -0.733961   -2.159987
     10          1           0       -4.527372    1.214225   -1.154252
     11          1           0       -5.817427    0.662169   -0.084998
     12          1           0       -2.996576   -2.307430   -0.148972
     13          1           0       -2.145225    0.561862   -0.658218
     14          1           0       -4.161130   -0.537750    1.338792
     15          1           0       -3.669023    1.155675    1.149935
     16          1           0       -3.279472   -0.474537   -2.592309
     17          7           0       -1.285521   -1.936774   -1.248040
     18          6           0       -0.626795   -1.249599   -2.211543
     19          6           0       -0.570832   -2.732181   -0.415792
     20          6           0        0.728308   -1.316182   -2.359312
     21          1           0       -1.233171   -0.614713   -2.844516
     22          6           0        0.787569   -2.844805   -0.496211
     23          1           0       -1.138422   -3.241496    0.355390
     24          6           0        1.507958   -2.055461   -1.425957
     25          1           0        1.194933   -0.740289   -3.147797
     26          1           0        1.287895   -3.452699    0.244567
     27          7           0        2.845496   -1.994545   -1.408488
     28          6           0        3.596959   -2.505137   -0.253518
     29          1           0        3.494973   -3.590565   -0.172105
     30          1           0        3.207632   -2.034194    0.660154
     31          6           0        3.583892   -0.918573   -2.091188
     32          1           0        3.854201   -1.233823   -3.105876
     33          1           0        2.967675   -0.016851   -2.134399
     34          7           0       -1.352488   -0.339582    0.969574
     35         16           0       -1.389775   -1.230606    2.288536
     36          8           0       -2.538397   -2.155187    2.288538
     37          8           0       -0.053176   -1.844630    2.481244
     38          6           0       -0.739828    2.772282   -0.063140
     39          6           0       -0.160496    2.130436   -1.166173
     40          6           0       -0.807111    2.156402   -2.399553
     41          6           0       -2.049047    2.779545   -2.537696
     42          6           0       -2.635995    3.393680   -1.434289
     43          6           0       -1.975959    3.392032   -0.209011
     44          1           0        0.769317    1.578230   -1.036984
     45          1           0       -0.344533    1.681128   -3.262614
     46          1           0       -2.555891    2.789403   -3.497743
     47          1           0       -3.606252    3.872193   -1.519715
     48          1           0       -2.426250    3.859981    0.662905
     49          8           0        0.263093    1.415122    1.629725
     50          1           0       -0.444480    0.671462    1.203495
     51          6           0        2.364576    0.582609    1.173386
     52          8           0        2.081773    0.155735    0.068273
     53          8           0        2.252031   -0.140628    2.289292
     54          1           0        1.532003   -0.807578    2.177844
     55          6           0        3.106788    1.880809    1.396842
     56          1           0        2.620698    2.441820    2.202958
     57          1           0        4.092890    1.586424    1.780454
     58          6           0       -0.089880    2.710993    1.299398
     59          1           0       -0.776625    3.150284    2.043402
     60          1           0        0.803638    3.363347    1.305399
     61          6           0       -1.540515   -0.079967    3.653537
     62          1           0       -0.721354    0.632518    3.521194
     63          1           0       -2.506342    0.423041    3.579478
     64          1           0       -1.450798   -0.623598    4.595114
     65          6           0        3.275411    2.729180    0.138396
     66          1           0        3.662145    2.097731   -0.669764
     67          1           0        2.302060    3.093159   -0.210417
     68          6           0        4.214849    3.910368    0.373911
     69          1           0        4.373057    4.486843   -0.542252
     70          1           0        3.812759    4.591152    1.131837
     71          1           0        5.193038    3.565202    0.726322
     72          6           0        5.026507   -2.057212   -0.538472
     73          1           0        5.625929   -2.000357    0.372198
     74          1           0        5.509287   -2.755258   -1.230211
     75          6           0        4.814424   -0.697428   -1.206582
     76          1           0        4.565190    0.046919   -0.445076
     77          1           0        5.679091   -0.345356   -1.772517
 ---------------------------------------------------------------------

 SCF Done:  E(RM062X) =  -1991.37012793     A.U. after   15 cycles

 The electronic state is 1-A.
 Alpha  occ. eigenvalues --  -90.10929 -19.63296 -19.59621 -19.58927 -19.58900
 Alpha  occ. eigenvalues --  -19.56316 -14.84913 -14.80451 -14.70091 -10.65786
 Alpha  occ. eigenvalues --  -10.63302 -10.62530 -10.61845 -10.59505 -10.58993
 Alpha  occ. eigenvalues --  -10.58833 -10.57885 -10.57141 -10.56901 -10.56376
 Alpha  occ. eigenvalues --  -10.55871 -10.55761 -10.55607 -10.54865 -10.54791
 Alpha  occ. eigenvalues --  -10.54746 -10.54695 -10.54159 -10.54034 -10.53746
 Alpha  occ. eigenvalues --  -10.53637 -10.53597 -10.53466 -10.53408 -10.52840
 Alpha  occ. eigenvalues --  -10.52840  -8.41892  -6.34126  -6.34040  -6.33961
 Alpha  occ. eigenvalues --   -1.18919  -1.18414  -1.13071  -1.09817  -1.09007
 Alpha  occ. eigenvalues --   -1.07500  -1.06768  -0.98161  -0.95067  -0.94965
 Alpha  occ. eigenvalues --   -0.92502  -0.89946  -0.88637  -0.88285  -0.84798
 Alpha  occ. eigenvalues --   -0.84611  -0.83919  -0.83706  -0.83246  -0.80404
 Alpha  occ. eigenvalues --   -0.79300  -0.76408  -0.75689  -0.73631  -0.71217
 Alpha  occ. eigenvalues --   -0.70598  -0.69248  -0.68637  -0.68356  -0.67876
 Alpha  occ. eigenvalues --   -0.65584  -0.64914  -0.63981  -0.63316  -0.62019
 Alpha  occ. eigenvalues --   -0.60371  -0.59600  -0.58695  -0.58347  -0.56311
 Alpha  occ. eigenvalues --   -0.55836  -0.55452  -0.55120  -0.54725  -0.53765
 Alpha  occ. eigenvalues --   -0.53599  -0.53138  -0.52341  -0.52095  -0.51342
 Alpha  occ. eigenvalues --   -0.51291  -0.50916  -0.50743  -0.50161  -0.49760
 Alpha  occ. eigenvalues --   -0.49653  -0.49529  -0.48742  -0.48345  -0.47803
 Alpha  occ. eigenvalues --   -0.47185  -0.47113  -0.47010  -0.46562  -0.46040
 Alpha  occ. eigenvalues --   -0.45646  -0.45333  -0.44183  -0.43725  -0.43526
 Alpha  occ. eigenvalues --   -0.43121  -0.42724  -0.42095  -0.41731  -0.41463
 Alpha  occ. eigenvalues --   -0.41331  -0.40748  -0.40432  -0.40045  -0.39611
 Alpha  occ. eigenvalues --   -0.39434  -0.39239  -0.38994  -0.38635  -0.37893
 Alpha  occ. eigenvalues --   -0.37590  -0.36518  -0.35823  -0.35516  -0.35010
 Alpha  occ. eigenvalues --   -0.34166  -0.33102  -0.32355  -0.31494  -0.29925
 Alpha  occ. eigenvalues --   -0.29769  -0.28396  -0.27642  -0.27309  -0.25810
 Alpha virt. eigenvalues --   -0.01194   0.00601   0.03364   0.04023   0.09471
 Alpha virt. eigenvalues --    0.10166   0.11035   0.11686   0.12881   0.13419
 Alpha virt. eigenvalues --    0.13798   0.14383   0.15117   0.15362   0.15802

 Mulliken charges:
               1
     1  C   -0.304467
     2  C   -0.305148
     3  C   -0.309886
     4  C   -0.067307
     5  C    0.076646
     6  C   -0.305559
     7  H    0.167864
     8  H    0.161895
     9  H    0.160381
    10  H    0.146079
    11  H    0.158391
    12  H    0.208118
    13  H    0.147379
    14  H    0.185948
    15  H    0.152184
    16  H    0.151273
    17  N   -0.426532
    18  C    0.095743
    19  C    0.097723
    20  C   -0.225333
    21  H    0.205358
    22  C   -0.228377
    23  H    0.254507
    24  C    0.426884
    25  H    0.188732
    26  H    0.208134
    27  N   -0.523746
    28  C   -0.159405
    29  H    0.177227
    30  H    0.198742
    31  C   -0.145645
    32  H    0.169194
    33  H    0.195349
    34  N   -0.807514
    35  S    1.247272
    36  O   -0.628225
    37  O   -0.654480
    38  C    0.054920
    39  C   -0.181778
    40  C   -0.189320
    41  C   -0.171877
    42  C   -0.160830
    43  C   -0.200632
    44  H    0.204798
    45  H    0.137954
    46  H    0.155580
    47  H    0.160524
    48  H    0.157605
    49  O   -0.724264
    50  H    0.491465
    51  C    0.683349
    52  O   -0.528043
    53  O   -0.647657
    54  H    0.475656
    55  C   -0.374367
    56  H    0.196231
    57  H    0.167903
    58  C   -0.052384
    59  H    0.113503
    60  H    0.127344
    61  C   -0.669930
    62  H    0.246197
    63  H    0.186967
    64  H    0.206950
    65  C   -0.292969
    66  H    0.147027
    67  H    0.164837
    68  C   -0.480223
    69  H    0.159763
    70  H    0.159018
    71  H    0.151722
    72  C   -0.334733
    73  H    0.184016
    74  H    0.168745
    75  C   -0.335276
    76  H    0.180412
    77  H    0.172398
 Sum of Mulliken charges =  -0.00000

 Dipole moment (field-independent basis, Debye):
    X=              1.4958    Y=             -0.2572    Z=             -6.5553  Tot=              6.7287
 Quadrupole moment (field-independent basis, Debye-Ang):
   XX=           -201.1252   YY=           -223.5749   ZZ=           -222.0093
   XY=            -11.3115   XZ=              1.0144   YZ=             12.9052

 Normal termination of Gaussian 16 at Thu Feb  7 20:13:22 2019.
