 Gaussian 16, Revision A.03,
 Gaussian 16:  ES64L-G16RevA.03 25-Dec-2016

 ------------------------------------------
 #p M062X/6-31G* em=gd3 force int=ultrafine
 ------------------------------------------

 -----
 Title
 -----
 Symbolic Z-matrix:
 Charge =  0 Multiplicity = 1

                         Standard orientation:
 ---------------------------------------------------------------------
 Center     Atomic      Atomic             Coordinates (Angstroms)
 Number     Number       Type             X           Y           Z
 ---------------------------------------------------------------------
      1          6           0       -4.843147    0.452850   -0.516367
      2          6           0       -4.994572   -0.818870   -1.356095
      3          6           0       -3.644624   -1.245246   -1.945350
      4          6           0       -2.655270   -1.476899   -0.807328
      5          6           0       -2.469248   -0.188910    0.033447
      6          6           0       -3.817407    0.265463    0.605656
      7          1           0       -3.742111   -2.151748   -2.552560
      8          1           0       -5.389855   -1.629838   -0.730334
      9          1           0       -5.713542   -0.660789   -2.166211
     10          1           0       -4.513386    1.274732   -1.166668
     11          1           0       -5.811132    0.743921   -0.095734
     12          1           0       -3.034339   -2.269658   -0.154508
     13          1           0       -2.130940    0.589799   -0.663058
     14          1           0       -4.175980   -0.475028    1.329494
     15          1           0       -3.655936    1.210606    1.136945
     16          1           0       -3.288725   -0.437688   -2.599231
     17          7           0       -1.316703   -1.926291   -1.251161
     18          6           0       -0.645222   -1.248219   -2.216293
     19          6           0       -0.611737   -2.732908   -0.417358
     20          6           0        0.707383   -1.329741   -2.358361
     21          1           0       -1.242716   -0.609673   -2.853975
     22          6           0        0.743165   -2.855788   -0.488196
     23          1           0       -1.188523   -3.237258    0.350223
     24          6           0        1.478462   -2.070567   -1.415684
     25          1           0        1.183729   -0.761683   -3.146397
     26          1           0        1.235721   -3.470533    0.251917
     27          7           0        2.809830   -2.027360   -1.395318
     28          6           0        3.556105   -2.546132   -0.238892
     29          1           0        3.433672   -3.629450   -0.153157
     30          1           0        3.176760   -2.051842    0.666505
     31          6           0        3.565633   -0.966244   -2.083688
     32          1           0        3.828560   -1.292536   -3.097256
     33          1           0        2.962250   -0.056380   -2.121986
     34          7           0       -1.371310   -0.322199    0.975274
     35         16           0       -1.410626   -1.220948    2.327644
     36          8           0       -2.598792   -2.080278    2.281042
     37          8           0       -0.106965   -1.877080    2.490716
     38          6           0       -0.652712    2.739275   -0.066305
     39          6           0       -0.106932    2.097764   -1.187041
     40          6           0       -0.770326    2.145919   -2.412231
     41          6           0       -2.000768    2.794305   -2.531839
     42          6           0       -2.559311    3.410668   -1.414014
     43          6           0       -1.882530    3.385274   -0.195627
     44          1           0        0.816163    1.530470   -1.069544
     45          1           0       -0.325046    1.672018   -3.285343
     46          1           0       -2.517299    2.824857   -3.486915
     47          1           0       -3.519612    3.912892   -1.488672
     48          1           0       -2.318924    3.864989    0.677933
     49          8           0        0.471492    1.408404    1.622037
     50          1           0       -0.570451    0.405191    1.041013
     51          6           0        2.182963    0.667433    1.182848
     52          8           0        2.026596    0.161462    0.057966
     53          8           0        2.219444   -0.132369    2.290914
     54          1           0        1.533958   -0.820231    2.175194
     55          6           0        3.081423    1.878392    1.387678
     56          1           0        2.701736    2.492317    2.210886
     57          1           0        4.045435    1.472719    1.727054
     58          6           0        0.052989    2.678457    1.282215
     59          1           0       -0.646699    3.073635    2.043054
     60          1           0        0.897336    3.393982    1.267492
     61          6           0       -1.529681   -0.044092    3.658555
     62          1           0       -0.685279    0.638535    3.513101
     63          1           0       -2.484111    0.478319    3.575820
     64          1           0       -1.455997   -0.585046    4.603122
     65          6           0        3.302646    2.702343    0.122588
     66          1           0        3.679503    2.043218   -0.668320
     67          1           0        2.349726    3.093667   -0.251081
     68          6           0        4.277401    3.854217    0.355797
     69          1           0        4.457369    4.423229   -0.561354
     70          1           0        3.890991    4.548255    1.110189
     71          1           0        5.243112    3.482192    0.715932
     72          6           0        4.992021   -2.126703   -0.532775
     73          1           0        5.595539   -2.079075    0.375569
     74          1           0        5.459754   -2.834697   -1.225566
     75          6           0        4.797850   -0.763410   -1.198536
     76          1           0        4.547749   -0.020954   -0.435453
     77          1           0        5.667290   -0.422211   -1.764220
 ---------------------------------------------------------------------

 SCF Done:  E(RM062X) =  -1991.35624645     A.U. after   15 cycles

 The electronic state is 1-A.
 Alpha  occ. eigenvalues --  -90.13823 -19.61669 -19.61372 -19.59888 -19.54944
 Alpha  occ. eigenvalues --  -19.54879 -14.85308 -14.80412 -14.74823 -10.63803
 Alpha  occ. eigenvalues --  -10.63431 -10.62774 -10.62253 -10.60785 -10.59192
 Alpha  occ. eigenvalues --  -10.58420 -10.58326 -10.57989 -10.57183 -10.56626
 Alpha  occ. eigenvalues --  -10.55653 -10.55576 -10.55359 -10.55283 -10.54787
 Alpha  occ. eigenvalues --  -10.54698 -10.54672 -10.54593 -10.54556 -10.54219
 Alpha  occ. eigenvalues --  -10.53999 -10.53608 -10.52970 -10.51749 -10.51612
 Alpha  occ. eigenvalues --  -10.51029  -8.44821  -6.37043  -6.36988  -6.36879
 Alpha  occ. eigenvalues --   -1.21621  -1.14798  -1.13534  -1.09853  -1.09262
 Alpha  occ. eigenvalues --   -1.05000  -1.03893  -1.01065  -0.95692  -0.94653
 Alpha  occ. eigenvalues --   -0.93450  -0.90262  -0.88763  -0.86380  -0.85872
 Alpha  occ. eigenvalues --   -0.84652  -0.84288  -0.83937  -0.82904  -0.82448
 Alpha  occ. eigenvalues --   -0.77187  -0.76704  -0.75804  -0.72677  -0.72274
 Alpha  occ. eigenvalues --   -0.71562  -0.68384  -0.68222  -0.67742  -0.67132
 Alpha  occ. eigenvalues --   -0.66717  -0.65068  -0.64344  -0.63371  -0.60833
 Alpha  occ. eigenvalues --   -0.60403  -0.59980  -0.59165  -0.57997  -0.57504
 Alpha  occ. eigenvalues --   -0.56968  -0.56372  -0.55238  -0.54451  -0.53855
 Alpha  occ. eigenvalues --   -0.53406  -0.52529  -0.52303  -0.52263  -0.51593
 Alpha  occ. eigenvalues --   -0.51434  -0.51284  -0.50867  -0.50131  -0.49856
 Alpha  occ. eigenvalues --   -0.49426  -0.48801  -0.48342  -0.48057  -0.48024
 Alpha  occ. eigenvalues --   -0.47636  -0.47225  -0.47123  -0.46507  -0.46124
 Alpha  occ. eigenvalues --   -0.45325  -0.45080  -0.44688  -0.43794  -0.43254
 Alpha  occ. eigenvalues --   -0.42393  -0.42337  -0.41512  -0.41392  -0.41156
 Alpha  occ. eigenvalues --   -0.40951  -0.40447  -0.40002  -0.39999  -0.39524
 Alpha  occ. eigenvalues --   -0.39430  -0.38795  -0.38361  -0.38017  -0.37789
 Alpha  occ. eigenvalues --   -0.37474  -0.37255  -0.36928  -0.35767  -0.35526
 Alpha  occ. eigenvalues --   -0.34874  -0.34139  -0.32685  -0.30274  -0.29485
 Alpha  occ. eigenvalues --   -0.28686  -0.28232  -0.27952  -0.26296  -0.24800
 Alpha virt. eigenvalues --   -0.01439   0.00376   0.03603   0.04227   0.10218
 Alpha virt. eigenvalues --    0.10944   0.11540   0.12041   0.13370   0.13428
 Alpha virt. eigenvalues --    0.14001   0.14593   0.14709   0.15335   0.15404

 Mulliken charges:
               1
     1  C   -0.306885
     2  C   -0.307143
     3  C   -0.311625
     4  C   -0.063877
     5  C    0.068385
     6  C   -0.307110
     7  H    0.173248
     8  H    0.162589
     9  H    0.165459
    10  H    0.152600
    11  H    0.163391
    12  H    0.209098
    13  H    0.171395
    14  H    0.188861
    15  H    0.161004
    16  H    0.156740
    17  N   -0.433222
    18  C    0.088112
    19  C    0.088375
    20  C   -0.217286
    21  H    0.205639
    22  C   -0.224822
    23  H    0.248484
    24  C    0.438669
    25  H    0.192456
    26  H    0.209303
    27  N   -0.519810
    28  C   -0.161591
    29  H    0.171755
    30  H    0.210325
    31  C   -0.146576
    32  H    0.165151
    33  H    0.202476
    34  N   -0.818339
    35  S    1.241675
    36  O   -0.610015
    37  O   -0.610692
    38  C    0.055351
    39  C   -0.197569
    40  C   -0.191089
    41  C   -0.175224
    42  C   -0.163036
    43  C   -0.206469
    44  H    0.220328
    45  H    0.136613
    46  H    0.153564
    47  H    0.157674
    48  H    0.153868
    49  O   -0.666399
    50  H    0.454243
    51  C    0.679997
    52  O   -0.598602
    53  O   -0.669730
    54  H    0.453607
    55  C   -0.342302
    56  H    0.171434
    57  H    0.152107
    58  C   -0.045811
    59  H    0.103660
    60  H    0.125932
    61  C   -0.670657
    62  H    0.267184
    63  H    0.198296
    64  H    0.218877
    65  C   -0.289515
    66  H    0.141775
    67  H    0.154938
    68  C   -0.477242
    69  H    0.152507
    70  H    0.154311
    71  H    0.148560
    72  C   -0.334709
    73  H    0.184817
    74  H    0.164113
    75  C   -0.336872
    76  H    0.196616
    77  H    0.168659
 Sum of Mulliken charges =  -0.00000

 Dipole moment (field-independent basis, Debye):
    X=             -1.6573    Y=             -2.0112    Z=             -6.0255  Tot=              6.5649
 Quadrupole moment (field-independent basis, Debye-Ang):
   XX=           -203.5498   YY=           -224.9689   ZZ=           -219.1069
   XY=            -12.3997   XZ=             -3.1084   YZ=             10.4871

 Normal termination of Gaussian 16 at Thu Feb  7 18:58:35 2019.
