 Gaussian 16, Revision A.03,
 Gaussian 16:  ES64L-G16RevA.03 25-Dec-2016

 ------------------------------------------
 #p M062X/6-31G* em=gd3 force int=ultrafine
 ------------------------------------------

 -----
 Title
 -----
 Symbolic Z-matrix:
 Charge =  0 Multiplicity = 1

                         Standard orientation:
 ---------------------------------------------------------------------
 Center     Atomic      Atomic             Coordinates (Angstroms)
 Number     Number       Type             X           Y           Z
 ---------------------------------------------------------------------
      1          6           0       -4.787682    0.449176   -0.517310
      2          6           0       -4.992541   -0.846897   -1.307374
      3          6           0       -3.674583   -1.318959   -1.933839
      4          6           0       -2.652027   -1.524237   -0.822317
      5          6           0       -2.403593   -0.204911   -0.046745
      6          6           0       -3.717684    0.289578    0.567569
      7          1           0       -3.810808   -2.247012   -2.499238
      8          1           0       -5.375022   -1.629823   -0.639374
      9          1           0       -5.741589   -0.702278   -2.092183
     10          1           0       -4.479988    1.244632   -1.208684
     11          1           0       -5.732437    0.765268   -0.063188
     12          1           0       -3.027415   -2.275102   -0.120345
     13          1           0       -2.085948    0.543178   -0.784328
     14          1           0       -4.058859   -0.420473    1.328325
     15          1           0       -3.524357    1.249763    1.057759
     16          1           0       -3.328682   -0.546105   -2.633524
     17          7           0       -1.335917   -2.018277   -1.278371
     18          6           0       -0.653373   -1.340462   -2.239767
     19          6           0       -0.637152   -2.811175   -0.422653
     20          6           0        0.701857   -1.395516   -2.343919
     21          1           0       -1.248618   -0.720133   -2.898501
     22          6           0        0.719721   -2.903358   -0.452739
     23          1           0       -1.224269   -3.311637    0.339826
     24          6           0        1.459150   -2.092278   -1.354799
     25          1           0        1.189793   -0.828354   -3.125024
     26          1           0        1.207809   -3.494726    0.308814
     27          7           0        2.781111   -1.990373   -1.280493
     28          6           0        3.516692   -2.448624   -0.092110
     29          1           0        3.397914   -3.527051    0.043884
     30          1           0        3.125953   -1.905175    0.780768
     31          6           0        3.507793   -0.918531   -1.975877
     32          1           0        3.749736   -1.232044   -2.998841
     33          1           0        2.879207   -0.024162   -1.993589
     34          7           0       -1.279236   -0.301272    0.871240
     35         16           0       -1.324114   -1.142221    2.268316
     36          8           0       -2.533657   -1.970957    2.265504
     37          8           0       -0.036682   -1.816867    2.451568
     38          6           0       -0.583950    2.679896    0.007707
     39          6           0       -0.112083    2.177946   -1.215543
     40          6           0       -0.892358    2.263306   -2.367165
     41          6           0       -2.161098    2.842080   -2.331174
     42          6           0       -2.642917    3.339339   -1.123441
     43          6           0       -1.856518    3.258505    0.026129
     44          1           0        0.844927    1.668196   -1.231897
     45          1           0       -0.499057    1.879892   -3.306544
     46          1           0       -2.762879    2.911211   -3.233210
     47          1           0       -3.627871    3.795501   -1.074297
     48          1           0       -2.241192    3.660439    0.961464
     49          8           0        0.717702    1.544868    1.869787
     50          1           0       -0.302154   -0.058916    0.552991
     51          6           0        1.868057    0.819717    1.241476
     52          8           0        1.476897    0.209403    0.143042
     53          8           0        2.245286   -0.060522    2.284687
     54          1           0        1.552627   -0.745530    2.299727
     55          6           0        3.063252    1.801731    1.132342
     56          1           0        3.001318    2.517850    1.961877
     57          1           0        3.963369    1.205526    1.327948
     58          6           0        0.250494    2.731907    1.291880
     59          1           0       -0.386280    3.194467    2.057453
     60          1           0        1.082203    3.433684    1.128932
     61          6           0       -1.455334    0.077367    3.554719
     62          1           0       -0.580699    0.725022    3.447901
     63          1           0       -2.384383    0.630270    3.405334
     64          1           0       -1.463542   -0.448650    4.510772
     65          6           0        3.243156    2.538427   -0.191957
     66          1           0        3.333940    1.806313   -1.003581
     67          1           0        2.360703    3.138636   -0.438934
     68          6           0        4.472805    3.445006   -0.165238
     69          1           0        4.620137    3.960697   -1.119177
     70          1           0        4.375156    4.207259    0.616548
     71          1           0        5.379865    2.869037    0.052856
     72          6           0        4.952265   -2.043537   -0.406160
     73          1           0        5.559745   -1.962639    0.496960
     74          1           0        5.415186   -2.777717   -1.074846
     75          6           0        4.759241   -0.703499   -1.119517
     76          1           0        4.543194    0.069121   -0.377090
     77          1           0        5.621492   -0.392829   -1.713203
 ---------------------------------------------------------------------

 SCF Done:  E(RM062X) =  -1991.35828096     A.U. after   14 cycles

 The electronic state is 1-A.
 Alpha  occ. eigenvalues --  -90.14232 -19.61830 -19.61803 -19.58654 -19.56677
 Alpha  occ. eigenvalues --  -19.51182 -14.85189 -14.80438 -14.75876 -10.63421
 Alpha  occ. eigenvalues --  -10.62789 -10.62222 -10.62205 -10.60760 -10.59399
 Alpha  occ. eigenvalues --  -10.58396 -10.58004 -10.57967 -10.57177 -10.56898
 Alpha  occ. eigenvalues --  -10.56710 -10.55679 -10.55628 -10.55100 -10.54852
 Alpha  occ. eigenvalues --  -10.54818 -10.54790 -10.54737 -10.54586 -10.54411
 Alpha  occ. eigenvalues --  -10.54353 -10.54333 -10.53059 -10.51475 -10.51433
 Alpha  occ. eigenvalues --  -10.49656  -8.45208  -6.37426  -6.37402  -6.37244
 Alpha  occ. eigenvalues --   -1.22053  -1.13595  -1.13460  -1.10309  -1.09340
 Alpha  occ. eigenvalues --   -1.05848  -1.01801  -0.99277  -0.95767  -0.94998
 Alpha  occ. eigenvalues --   -0.93510  -0.90313  -0.88760  -0.85947  -0.85734
 Alpha  occ. eigenvalues --   -0.84829  -0.84727  -0.84211  -0.83062  -0.82728
 Alpha  occ. eigenvalues --   -0.76676  -0.76237  -0.75829  -0.74345  -0.72827
 Alpha  occ. eigenvalues --   -0.71673  -0.68328  -0.68215  -0.67940  -0.67235
 Alpha  occ. eigenvalues --   -0.66731  -0.65243  -0.64862  -0.63531  -0.60544
 Alpha  occ. eigenvalues --   -0.60404  -0.59773  -0.59091  -0.57803  -0.57613
 Alpha  occ. eigenvalues --   -0.57195  -0.56446  -0.55799  -0.55167  -0.54207
 Alpha  occ. eigenvalues --   -0.53569  -0.52673  -0.52485  -0.52466  -0.51908
 Alpha  occ. eigenvalues --   -0.51556  -0.51005  -0.50692  -0.49889  -0.49527
 Alpha  occ. eigenvalues --   -0.49164  -0.48853  -0.48208  -0.48139  -0.47986
 Alpha  occ. eigenvalues --   -0.47691  -0.47477  -0.46926  -0.46416  -0.46103
 Alpha  occ. eigenvalues --   -0.44890  -0.44741  -0.44163  -0.43856  -0.43267
 Alpha  occ. eigenvalues --   -0.42534  -0.42153  -0.41382  -0.41290  -0.41090
 Alpha  occ. eigenvalues --   -0.40905  -0.40499  -0.39991  -0.39793  -0.39278
 Alpha  occ. eigenvalues --   -0.39250  -0.39079  -0.38431  -0.37994  -0.37613
 Alpha  occ. eigenvalues --   -0.37386  -0.36749  -0.36545  -0.35772  -0.34916
 Alpha  occ. eigenvalues --   -0.34394  -0.33993  -0.31666  -0.31134  -0.29779
 Alpha  occ. eigenvalues --   -0.28874  -0.28607  -0.27665  -0.24770  -0.24352
 Alpha virt. eigenvalues --   -0.01529   0.00392   0.03538   0.03743   0.10131
 Alpha virt. eigenvalues --    0.10960   0.11641   0.12234   0.13161   0.13485
 Alpha virt. eigenvalues --    0.14222   0.14551   0.14754   0.15221   0.15599

 Mulliken charges:
               1
     1  C   -0.306286
     2  C   -0.307190
     3  C   -0.309156
     4  C   -0.060279
     5  C    0.056328
     6  C   -0.311282
     7  H    0.174099
     8  H    0.162900
     9  H    0.165613
    10  H    0.150945
    11  H    0.163503
    12  H    0.209105
    13  H    0.173259
    14  H    0.193340
    15  H    0.163558
    16  H    0.154381
    17  N   -0.430739
    18  C    0.067333
    19  C    0.064107
    20  C   -0.201505
    21  H    0.206313
    22  C   -0.209410
    23  H    0.244992
    24  C    0.445838
    25  H    0.192192
    26  H    0.211473
    27  N   -0.525734
    28  C   -0.170465
    29  H    0.169734
    30  H    0.228716
    31  C   -0.154741
    32  H    0.165181
    33  H    0.206521
    34  N   -0.814823
    35  S    1.252749
    36  O   -0.611430
    37  O   -0.605490
    38  C    0.083492
    39  C   -0.185261
    40  C   -0.189921
    41  C   -0.171405
    42  C   -0.163762
    43  C   -0.211974
    44  H    0.212957
    45  H    0.140472
    46  H    0.154942
    47  H    0.158600
    48  H    0.152451
    49  O   -0.551403
    50  H    0.447882
    51  C    0.723686
    52  O   -0.721336
    53  O   -0.717942
    54  H    0.443937
    55  C   -0.338371
    56  H    0.148482
    57  H    0.151248
    58  C   -0.090624
    59  H    0.139551
    60  H    0.147961
    61  C   -0.663396
    62  H    0.274320
    63  H    0.196413
    64  H    0.217722
    65  C   -0.291851
    66  H    0.134616
    67  H    0.146060
    68  C   -0.473130
    69  H    0.148843
    70  H    0.154007
    71  H    0.145429
    72  C   -0.331971
    73  H    0.186965
    74  H    0.162842
    75  C   -0.342984
    76  H    0.197851
    77  H    0.170950
 Sum of Mulliken charges =  -0.00000

 Dipole moment (field-independent basis, Debye):
    X=             -2.6390    Y=             -1.9702    Z=             -6.3201  Tot=              7.1267
 Quadrupole moment (field-independent basis, Debye-Ang):
   XX=           -205.9371   YY=           -222.5543   ZZ=           -220.0164
   XY=            -12.4842   XZ=             -5.2221   YZ=             10.0804

 Normal termination of Gaussian 16 at Thu Feb  7 14:18:25 2019.
