 Gaussian 16, Revision A.03,
 Gaussian 16:  ES64L-G16RevA.03 25-Dec-2016

 ------------------------------------------
 #p M062X/6-31G* em=gd3 force int=ultrafine
 ------------------------------------------

 -----
 Title
 -----
 Symbolic Z-matrix:
 Charge =  0 Multiplicity = 1

                         Standard orientation:
 ---------------------------------------------------------------------
 Center     Atomic      Atomic             Coordinates (Angstroms)
 Number     Number       Type             X           Y           Z
 ---------------------------------------------------------------------
      1          6           0       -4.866952    0.235555   -0.461027
      2          6           0       -4.969565   -1.053566   -1.281617
      3          6           0       -3.605066   -1.437321   -1.867468
      4          6           0       -2.602654   -1.596161   -0.728317
      5          6           0       -2.452829   -0.275539    0.080078
      6          6           0       -3.824101    0.110395    0.654046
      7          1           0       -3.670714   -2.360450   -2.454678
      8          1           0       -5.331252   -1.869200   -0.641944
      9          1           0       -5.696008   -0.937114   -2.092759
     10          1           0       -4.573912    1.058912   -1.127835
     11          1           0       -5.845919    0.494524   -0.043844
     12          1           0       -2.940696   -2.386163   -0.050985
     13          1           0       -2.203578    0.492184   -0.668315
     14          1           0       -4.136059   -0.639738    1.391512
     15          1           0       -3.708190    1.067792    1.176000
     16          1           0       -3.288526   -0.630857   -2.543158
     17          7           0       -1.248239   -2.003346   -1.172491
     18          6           0       -0.616101   -1.334731   -2.165162
     19          6           0       -0.508834   -2.755638   -0.323277
     20          6           0        0.738576   -1.381766   -2.329383
     21          1           0       -1.243909   -0.733916   -2.810444
     22          6           0        0.850277   -2.849042   -0.421651
     23          1           0       -1.056504   -3.239143    0.478655
     24          6           0        1.543521   -2.081144   -1.387419
     25          1           0        1.184018   -0.825704   -3.143842
     26          1           0        1.371040   -3.421040    0.333336
     27          7           0        2.881908   -2.002925   -1.393527
     28          6           0        3.658171   -2.486606   -0.243985
     29          1           0        3.587977   -3.574756   -0.158734
     30          1           0        3.262449   -2.029365    0.673698
     31          6           0        3.596795   -0.938160   -2.115451
     32          1           0        3.861820   -1.277892   -3.123899
     33          1           0        2.965913   -0.047817   -2.180949
     34          7           0       -1.325376   -0.283683    0.984543
     35         16           0       -1.306390   -1.186180    2.282273
     36          8           0       -2.356704   -2.227706    2.303773
     37          8           0        0.076709   -1.691533    2.498762
     38          6           0       -0.913648    2.829864   -0.130586
     39          6           0       -0.280572    2.148261   -1.177639
     40          6           0       -0.887946    2.084475   -2.430076
     41          6           0       -2.142520    2.657774   -2.643684
     42          6           0       -2.789284    3.303266   -1.592933
     43          6           0       -2.171419    3.388394   -0.347675
     44          1           0        0.664488    1.639264   -0.994806
     45          1           0       -0.380216    1.580522   -3.249806
     46          1           0       -2.614033    2.602041   -3.620356
     47          1           0       -3.772464    3.740860   -1.737510
     48          1           0       -2.673338    3.887286    0.477938
     49          8           0        0.283446    1.742086    1.679485
     50          1           0       -0.294038    0.989657    1.334445
     51          6           0        2.441193    0.601681    1.171061
     52          8           0        2.092291    0.185996    0.081036
     53          8           0        2.274637   -0.072601    2.299600
     54          1           0        1.544903   -0.741544    2.198494
     55          6           0        3.177029    1.907221    1.367015
     56          1           0        2.646149    2.448292    2.156865
     57          1           0        4.178773    1.683409    1.758942
     58          6           0       -0.267860    2.944250    1.233551
     59          1           0       -1.011712    3.337966    1.945045
     60          1           0        0.550088    3.679989    1.194478
     61          6           0       -1.584968   -0.087963    3.670167
     62          1           0       -0.821874    0.691643    3.606063
     63          1           0       -2.583454    0.343374    3.575825
     64          1           0       -1.490447   -0.653598    4.597957
     65          6           0        3.263654    2.736536    0.090066
     66          1           0        3.672652    2.121297   -0.720243
     67          1           0        2.251687    3.011293   -0.228912
     68          6           0        4.112278    3.991735    0.271806
     69          1           0        4.190939    4.558143   -0.660717
     70          1           0        3.681475    4.653323    1.030718
     71          1           0        5.126939    3.734408    0.594714
     72          6           0        5.075270   -2.004132   -0.540147
     73          1           0        5.667667   -1.900400    0.371183
     74          1           0        5.583596   -2.709991   -1.204718
     75          6           0        4.835006   -0.671845   -1.253855
     76          1           0        4.591818    0.100165   -0.518781
     77          1           0        5.688895   -0.333813   -1.844530
 ---------------------------------------------------------------------

 SCF Done:  E(RM062X) =  -1991.38495373     A.U. after   15 cycles

 The electronic state is 1-A.
 Alpha  occ. eigenvalues --  -90.10268 -19.63555 -19.60165 -19.58887 -19.58399
 Alpha  occ. eigenvalues --  -19.58302 -14.84787 -14.80438 -14.69301 -10.65688
 Alpha  occ. eigenvalues --  -10.63208 -10.62421 -10.61554 -10.59190 -10.59090
 Alpha  occ. eigenvalues --  -10.58934 -10.57824 -10.57379 -10.56768 -10.56702
 Alpha  occ. eigenvalues --  -10.55956 -10.55705 -10.55602 -10.55046 -10.54979
 Alpha  occ. eigenvalues --  -10.54912 -10.54637 -10.54599 -10.54511 -10.53922
 Alpha  occ. eigenvalues --  -10.53591 -10.53437 -10.53408 -10.53371 -10.52825
 Alpha  occ. eigenvalues --  -10.52627  -8.41224  -6.33461  -6.33371  -6.33291
 Alpha  occ. eigenvalues --   -1.19287  -1.17750  -1.12922  -1.10140  -1.09983
 Alpha  occ. eigenvalues --   -1.09086  -1.06032  -0.97528  -0.95335  -0.94743
 Alpha  occ. eigenvalues --   -0.92188  -0.89822  -0.88558  -0.88284  -0.85078
 Alpha  occ. eigenvalues --   -0.84861  -0.83691  -0.83529  -0.83290  -0.80065
 Alpha  occ. eigenvalues --   -0.79341  -0.76318  -0.75617  -0.74668  -0.70941
 Alpha  occ. eigenvalues --   -0.70246  -0.69286  -0.68671  -0.68341  -0.68080
 Alpha  occ. eigenvalues --   -0.65952  -0.64753  -0.63919  -0.63489  -0.61602
 Alpha  occ. eigenvalues --   -0.60263  -0.59367  -0.59079  -0.58353  -0.56156
 Alpha  occ. eigenvalues --   -0.55594  -0.55262  -0.55146  -0.54334  -0.53844
 Alpha  occ. eigenvalues --   -0.53453  -0.53052  -0.52587  -0.51886  -0.51657
 Alpha  occ. eigenvalues --   -0.51079  -0.50955  -0.50617  -0.50038  -0.49829
 Alpha  occ. eigenvalues --   -0.49671  -0.49527  -0.48780  -0.48316  -0.48009
 Alpha  occ. eigenvalues --   -0.47790  -0.47213  -0.47064  -0.46979  -0.45845
 Alpha  occ. eigenvalues --   -0.45596  -0.45200  -0.43950  -0.43683  -0.43461
 Alpha  occ. eigenvalues --   -0.42872  -0.42802  -0.42165  -0.42046  -0.41844
 Alpha  occ. eigenvalues --   -0.41195  -0.40918  -0.40521  -0.39880  -0.39614
 Alpha  occ. eigenvalues --   -0.39373  -0.39308  -0.39009  -0.38403  -0.38042
 Alpha  occ. eigenvalues --   -0.37359  -0.36253  -0.35818  -0.35336  -0.35176
 Alpha  occ. eigenvalues --   -0.34284  -0.33011  -0.31995  -0.31660  -0.31370
 Alpha  occ. eigenvalues --   -0.29934  -0.28829  -0.28328  -0.27342  -0.25349
 Alpha virt. eigenvalues --   -0.01053   0.00678   0.03149   0.03718   0.08881
 Alpha virt. eigenvalues --    0.10170   0.10947   0.11800   0.12957   0.13536
 Alpha virt. eigenvalues --    0.13817   0.14311   0.14985   0.15475   0.15855

 Mulliken charges:
               1
     1  C   -0.303952
     2  C   -0.304242
     3  C   -0.309799
     4  C   -0.072241
     5  C    0.066835
     6  C   -0.304797
     7  H    0.166851
     8  H    0.161236
     9  H    0.159230
    10  H    0.145232
    11  H    0.156968
    12  H    0.210304
    13  H    0.140616
    14  H    0.180344
    15  H    0.150286
    16  H    0.149893
    17  N   -0.423992
    18  C    0.097682
    19  C    0.087961
    20  C   -0.226477
    21  H    0.204602
    22  C   -0.226848
    23  H    0.261225
    24  C    0.426968
    25  H    0.187598
    26  H    0.207719
    27  N   -0.527066
    28  C   -0.158848
    29  H    0.178224
    30  H    0.198230
    31  C   -0.145941
    32  H    0.169574
    33  H    0.194207
    34  N   -0.764826
    35  S    1.247755
    36  O   -0.641146
    37  O   -0.669164
    38  C    0.050534
    39  C   -0.176111
    40  C   -0.188511
    41  C   -0.169506
    42  C   -0.160903
    43  C   -0.199574
    44  H    0.204492
    45  H    0.139521
    46  H    0.156964
    47  H    0.162264
    48  H    0.158291
    49  O   -0.717055
    50  H    0.485379
    51  C    0.659894
    52  O   -0.520902
    53  O   -0.646342
    54  H    0.483996
    55  C   -0.372954
    56  H    0.202741
    57  H    0.166102
    58  C   -0.063230
    59  H    0.126950
    60  H    0.146829
    61  C   -0.662339
    62  H    0.227803
    63  H    0.185960
    64  H    0.206176
    65  C   -0.289892
    66  H    0.146129
    67  H    0.162158
    68  C   -0.480437
    69  H    0.159459
    70  H    0.158565
    71  H    0.151802
    72  C   -0.336482
    73  H    0.184415
    74  H    0.169737
    75  C   -0.335713
    76  H    0.180754
    77  H    0.172838
 Sum of Mulliken charges =  -0.00000

 Dipole moment (field-independent basis, Debye):
    X=              1.5882    Y=             -0.0742    Z=             -6.6978  Tot=              6.8839
 Quadrupole moment (field-independent basis, Debye-Ang):
   XX=           -199.6437   YY=           -222.4544   ZZ=           -222.7113
   XY=            -11.6101   XZ=              0.3149   YZ=             12.8462

 Normal termination of Gaussian 16 at Thu Feb  7 22:24:32 2019.
