 Gaussian 16, Revision A.03,
 Gaussian 16:  ES64L-G16RevA.03 25-Dec-2016

 ------------------------------------------
 #p M062X/6-31G* em=gd3 force int=ultrafine
 ------------------------------------------

 -----
 Title
 -----
 Symbolic Z-matrix:
 Charge =  0 Multiplicity = 1

                         Standard orientation:
 ---------------------------------------------------------------------
 Center     Atomic      Atomic             Coordinates (Angstroms)
 Number     Number       Type             X           Y           Z
 ---------------------------------------------------------------------
      1          6           0       -4.869551    0.083312   -0.428840
      2          6           0       -4.914311   -1.203938   -1.257763
      3          6           0       -3.534912   -1.521896   -1.847358
      4          6           0       -2.528914   -1.643306   -0.707334
      5          6           0       -2.428208   -0.317077    0.099273
      6          6           0       -3.814361    0.004022    0.678629
      7          1           0       -3.559136   -2.445436   -2.437207
      8          1           0       -5.236247   -2.039776   -0.622788
      9          1           0       -5.647320   -1.115941   -2.066446
     10          1           0       -4.623645    0.925040   -1.091538
     11          1           0       -5.857097    0.288847   -0.002137
     12          1           0       -2.843161   -2.441406   -0.029416
     13          1           0       -2.213979    0.461070   -0.648457
     14          1           0       -4.086084   -0.764682    1.413291
     15          1           0       -3.742289    0.962914    1.205984
     16          1           0       -3.253598   -0.699504   -2.519567
     17          7           0       -1.164489   -2.013060   -1.150143
     18          6           0       -0.551827   -1.332471   -2.145905
     19          6           0       -0.410458   -2.764686   -0.313704
     20          6           0        0.801668   -1.362404   -2.322891
     21          1           0       -1.194637   -0.738836   -2.783062
     22          6           0        0.948540   -2.839713   -0.424217
     23          1           0       -0.946435   -3.260496    0.488486
     24          6           0        1.622263   -2.055303   -1.390332
     25          1           0        1.233590   -0.801472   -3.141179
     26          1           0        1.484527   -3.413964    0.318361
     27          7           0        2.958640   -1.958526   -1.407022
     28          6           0        3.755166   -2.450273   -0.275914
     29          1           0        3.701558   -3.540934   -0.209184
     30          1           0        3.362796   -2.015092    0.653970
     31          6           0        3.652215   -0.881470   -2.129420
     32          1           0        3.911667   -1.212082   -3.142639
     33          1           0        3.008575    0.000517   -2.183000
     34          7           0       -1.303024   -0.275427    1.010466
     35         16           0       -1.264817   -1.212994    2.280661
     36          8           0       -2.259024   -2.309068    2.255429
     37          8           0        0.133701   -1.663638    2.519415
     38          6           0       -1.111640    2.859570   -0.170915
     39          6           0       -0.393916    2.185217   -1.164695
     40          6           0       -0.929215    2.061013   -2.444912
     41          6           0       -2.194895    2.568650   -2.739594
     42          6           0       -2.922599    3.216095   -1.743412
     43          6           0       -2.377597    3.362329   -0.469807
     44          1           0        0.559091    1.722192   -0.914606
     45          1           0       -0.355449    1.557712   -3.219909
     46          1           0       -2.612219    2.461852   -3.736524
     47          1           0       -3.914286    3.605517   -1.954607
     48          1           0       -2.946537    3.863607    0.310284
     49          8           0        0.226754    1.919031    1.622900
     50          1           0       -0.282740    1.099256    1.352404
     51          6           0        2.438036    0.652303    1.220629
     52          8           0        2.120500    0.212084    0.128954
     53          8           0        2.208486    0.024278    2.361898
     54          1           0        1.509609   -0.677871    2.247580
     55          6           0        3.193291    1.946775    1.411116
     56          1           0        2.713510    2.475448    2.239978
     57          1           0        4.213927    1.701798    1.738319
     58          6           0       -0.531421    3.022131    1.218682
     59          1           0       -1.351142    3.239500    1.923715
     60          1           0        0.138313    3.894155    1.235494
     61          6           0       -1.639888   -0.183208    3.696402
     62          1           0       -0.937041    0.653274    3.677448
     63          1           0       -2.666853    0.173491    3.596034
     64          1           0       -1.521302   -0.773985    4.605689
     65          6           0        3.212613    2.801622    0.150634
     66          1           0        3.638473    2.223923   -0.678770
     67          1           0        2.177659    3.022262   -0.133889
     68          6           0        3.991352    4.099448    0.341711
     69          1           0        4.004649    4.694236   -0.576195
     70          1           0        3.543305    4.711512    1.131510
     71          1           0        5.029841    3.899023    0.627262
     72          6           0        5.161708   -1.942848   -0.581671
     73          1           0        5.763086   -1.841709    0.323981
     74          1           0        5.673038   -2.633499   -1.260042
     75          6           0        4.893701   -0.605676   -1.276601
     76          1           0        4.642057    0.153612   -0.530625
     77          1           0        5.736731   -0.247894   -1.871198
 ---------------------------------------------------------------------

 SCF Done:  E(RM062X) =  -1991.38904951     A.U. after   15 cycles

 The electronic state is 1-A.
 Alpha  occ. eigenvalues --  -90.10355 -19.63375 -19.60088 -19.59240 -19.58571
 Alpha  occ. eigenvalues --  -19.58347 -14.84802 -14.80503 -14.69385 -10.65471
 Alpha  occ. eigenvalues --  -10.63229 -10.62401 -10.61506 -10.59137 -10.59065
 Alpha  occ. eigenvalues --  -10.59050 -10.57822 -10.57420 -10.56820 -10.56655
 Alpha  occ. eigenvalues --  -10.56038 -10.55749 -10.55519 -10.54973 -10.54918
 Alpha  occ. eigenvalues --  -10.54866 -10.54589 -10.54550 -10.54497 -10.53778
 Alpha  occ. eigenvalues --  -10.53702 -10.53561 -10.53172 -10.53077 -10.52622
 Alpha  occ. eigenvalues --  -10.52602  -8.41320  -6.33558  -6.33465  -6.33385
 Alpha  occ. eigenvalues --   -1.19121  -1.17884  -1.12937  -1.10277  -1.09851
 Alpha  occ. eigenvalues --   -1.09139  -1.06150  -0.97536  -0.95263  -0.94798
 Alpha  occ. eigenvalues --   -0.92185  -0.89851  -0.88581  -0.88075  -0.85019
 Alpha  occ. eigenvalues --   -0.84944  -0.83651  -0.83505  -0.83301  -0.80183
 Alpha  occ. eigenvalues --   -0.79152  -0.76350  -0.75654  -0.74680  -0.70939
 Alpha  occ. eigenvalues --   -0.70193  -0.69097  -0.68715  -0.68358  -0.68011
 Alpha  occ. eigenvalues --   -0.65809  -0.64725  -0.63940  -0.63426  -0.61621
 Alpha  occ. eigenvalues --   -0.60266  -0.59391  -0.58986  -0.58354  -0.56167
 Alpha  occ. eigenvalues --   -0.55449  -0.55165  -0.55063  -0.54094  -0.53688
 Alpha  occ. eigenvalues --   -0.53440  -0.53073  -0.52412  -0.51961  -0.51717
 Alpha  occ. eigenvalues --   -0.51135  -0.50989  -0.50610  -0.50153  -0.49829
 Alpha  occ. eigenvalues --   -0.49596  -0.49494  -0.48828  -0.48347  -0.47995
 Alpha  occ. eigenvalues --   -0.47784  -0.47171  -0.46979  -0.46963  -0.45929
 Alpha  occ. eigenvalues --   -0.45809  -0.45240  -0.43949  -0.43649  -0.43422
 Alpha  occ. eigenvalues --   -0.42767  -0.42488  -0.42235  -0.41941  -0.41894
 Alpha  occ. eigenvalues --   -0.41157  -0.40856  -0.40562  -0.39911  -0.39531
 Alpha  occ. eigenvalues --   -0.39363  -0.39210  -0.38785  -0.38382  -0.37872
 Alpha  occ. eigenvalues --   -0.37320  -0.36224  -0.35866  -0.35355  -0.35116
 Alpha  occ. eigenvalues --   -0.34386  -0.33112  -0.32075  -0.31709  -0.31499
 Alpha  occ. eigenvalues --   -0.29856  -0.28885  -0.28317  -0.27463  -0.25402
 Alpha virt. eigenvalues --   -0.01024   0.00652   0.03288   0.03789   0.09073
 Alpha virt. eigenvalues --    0.10154   0.10913   0.11801   0.12989   0.13495
 Alpha virt. eigenvalues --    0.13863   0.14251   0.15092   0.15491   0.15767

 Mulliken charges:
               1
     1  C   -0.303921
     2  C   -0.304181
     3  C   -0.309674
     4  C   -0.073335
     5  C    0.062610
     6  C   -0.305121
     7  H    0.166014
     8  H    0.160932
     9  H    0.159133
    10  H    0.146253
    11  H    0.156682
    12  H    0.212788
    13  H    0.141480
    14  H    0.179413
    15  H    0.149448
    16  H    0.150632
    17  N   -0.424355
    18  C    0.099950
    19  C    0.083916
    20  C   -0.227773
    21  H    0.205032
    22  C   -0.226912
    23  H    0.264226
    24  C    0.428219
    25  H    0.188167
    26  H    0.207030
    27  N   -0.528800
    28  C   -0.157706
    29  H    0.178371
    30  H    0.199283
    31  C   -0.147006
    32  H    0.169554
    33  H    0.195774
    34  N   -0.755639
    35  S    1.249512
    36  O   -0.646670
    37  O   -0.670371
    38  C    0.048695
    39  C   -0.177042
    40  C   -0.187136
    41  C   -0.169881
    42  C   -0.162028
    43  C   -0.198016
    44  H    0.203508
    45  H    0.139228
    46  H    0.156407
    47  H    0.161851
    48  H    0.156879
    49  O   -0.712519
    50  H    0.481582
    51  C    0.648096
    52  O   -0.523020
    53  O   -0.645492
    54  H    0.485714
    55  C   -0.367984
    56  H    0.200822
    57  H    0.164148
    58  C   -0.066807
    59  H    0.128243
    60  H    0.157244
    61  C   -0.656895
    62  H    0.219695
    63  H    0.187951
    64  H    0.207807
    65  C   -0.287256
    66  H    0.143725
    67  H    0.165688
    68  C   -0.480357
    69  H    0.158536
    70  H    0.158494
    71  H    0.150345
    72  C   -0.337295
    73  H    0.184165
    74  H    0.170022
    75  C   -0.335757
    76  H    0.182452
    77  H    0.173234
 Sum of Mulliken charges =  -0.00000

 Dipole moment (field-independent basis, Debye):
    X=              1.5466    Y=             -0.3811    Z=             -6.5307  Tot=              6.7221
 Quadrupole moment (field-independent basis, Debye-Ang):
   XX=           -198.2340   YY=           -223.0688   ZZ=           -221.9534
   XY=            -11.9689   XZ=             -1.0880   YZ=             12.4120

 Normal termination of Gaussian 16 at Fri Feb  8 00:20:33 2019.
