 Gaussian 16, Revision A.03,
 Gaussian 16:  ES64L-G16RevA.03 25-Dec-2016

 ------------------------------------------
 #p M062X/6-31G* em=gd3 force int=ultrafine
 ------------------------------------------

 -----
 Title
 -----
 Symbolic Z-matrix:
 Charge =  0 Multiplicity = 1

                         Standard orientation:
 ---------------------------------------------------------------------
 Center     Atomic      Atomic             Coordinates (Angstroms)
 Number     Number       Type             X           Y           Z
 ---------------------------------------------------------------------
      1          6           0       -4.856194    0.534857   -0.535010
      2          6           0       -5.031729   -0.745556   -1.356569
      3          6           0       -3.691687   -1.204764   -1.943941
      4          6           0       -2.702327   -1.439778   -0.806795
      5          6           0       -2.497724   -0.144240    0.015487
      6          6           0       -3.832403    0.343683    0.587030
      7          1           0       -3.807109   -2.117295   -2.538366
      8          1           0       -5.439223   -1.540163   -0.717841
      9          1           0       -5.750558   -0.585803   -2.166246
     10          1           0       -4.513199    1.342154   -1.196560
     11          1           0       -5.817228    0.848770   -0.115234
     12          1           0       -3.093296   -2.216849   -0.141896
     13          1           0       -2.140405    0.620940   -0.685937
     14          1           0       -4.202609   -0.380107    1.321204
     15          1           0       -3.649721    1.291505    1.106168
     16          1           0       -3.322109   -0.413515   -2.609978
     17          7           0       -1.372972   -1.914824   -1.246108
     18          6           0       -0.686652   -1.251915   -2.214796
     19          6           0       -0.680224   -2.726936   -0.404528
     20          6           0        0.663978   -1.349798   -2.348412
     21          1           0       -1.273673   -0.612930   -2.861828
     22          6           0        0.672057   -2.863959   -0.465567
     23          1           0       -1.266940   -3.221471    0.361833
     24          6           0        1.423070   -2.088657   -1.391793
     25          1           0        1.152269   -0.794086   -3.137881
     26          1           0        1.154438   -3.480702    0.279434
     27          7           0        2.750651   -2.065010   -1.367288
     28          6           0        3.487721   -2.583976   -0.204087
     29          1           0        3.341491   -3.663258   -0.103695
     30          1           0        3.120942   -2.059722    0.689655
     31          6           0        3.524377   -1.022446   -2.063734
     32          1           0        3.780534   -1.361901   -3.075149
     33          1           0        2.934961   -0.103825   -2.100621
     34          7           0       -1.415461   -0.276155    0.974120
     35         16           0       -1.438012   -1.163975    2.340858
     36          8           0       -2.669491   -1.956460    2.321476
     37          8           0       -0.163993   -1.871217    2.474052
     38          6           0       -0.530822    2.682021   -0.065265
     39          6           0       -0.034777    2.070951   -1.224788
     40          6           0       -0.749553    2.153563   -2.419313
     41          6           0       -1.974050    2.819317   -2.475762
     42          6           0       -2.480138    3.414658   -1.321715
     43          6           0       -1.758444    3.346941   -0.130336
     44          1           0        0.887228    1.493607   -1.147958
     45          1           0       -0.342594    1.695491   -3.318769
     46          1           0       -2.525760    2.880206   -3.409748
     47          1           0       -3.434038    3.934055   -1.349369
     48          1           0       -2.158542    3.815874    0.766493
     49          8           0        0.667814    1.360152    1.648198
     50          1           0       -0.534985    0.265105    0.874373
     51          6           0        2.051614    0.732580    1.184278
     52          8           0        1.917038    0.179558    0.031478
     53          8           0        2.257155   -0.153129    2.262518
     54          1           0        1.568572   -0.836434    2.169655
     55          6           0        3.123231    1.830200    1.325451
     56          1           0        2.879202    2.492293    2.165738
     57          1           0        4.048561    1.312534    1.610036
     58          6           0        0.237300    2.630751    1.250751
     59          1           0       -0.432166    3.010504    2.038362
     60          1           0        1.077747    3.338367    1.204649
     61          6           0       -1.480373    0.031271    3.657544
     62          1           0       -0.596111    0.659920    3.512488
     63          1           0       -2.403922    0.606080    3.573997
     64          1           0       -1.435610   -0.508019    4.604981
     65          6           0        3.377495    2.627490    0.048278
     66          1           0        3.701324    1.936630   -0.738428
     67          1           0        2.449077    3.074156   -0.326988
     68          6           0        4.421495    3.722025    0.256110
     69          1           0        4.624842    4.271082   -0.668525
     70          1           0        4.084639    4.444925    1.007672
     71          1           0        5.367078    3.297981    0.612061
     72          6           0        4.930942   -2.200022   -0.508235
     73          1           0        5.538872   -2.158943    0.397432
     74          1           0        5.380798   -2.922191   -1.198898
     75          6           0        4.758479   -0.836557   -1.178713
     76          1           0        4.510252   -0.092610   -0.416493
     77          1           0        5.633478   -0.508287   -1.743820
 ---------------------------------------------------------------------

 SCF Done:  E(RM062X) =  -1991.35558444     A.U. after   15 cycles

 The electronic state is 1-A.
 Alpha  occ. eigenvalues --  -90.14715 -19.62356 -19.62056 -19.58568 -19.57111
 Alpha  occ. eigenvalues --  -19.50737 -14.85177 -14.80041 -14.76447 -10.63155
 Alpha  occ. eigenvalues --  -10.62607 -10.62282 -10.62122 -10.61075 -10.59855
 Alpha  occ. eigenvalues --  -10.57769 -10.57756 -10.57640 -10.57035 -10.56968
 Alpha  occ. eigenvalues --  -10.56879 -10.56361 -10.55865 -10.55124 -10.55075
 Alpha  occ. eigenvalues --  -10.55045 -10.54889 -10.54689 -10.54675 -10.54660
 Alpha  occ. eigenvalues --  -10.54456 -10.54049 -10.53126 -10.51108 -10.51003
 Alpha  occ. eigenvalues --  -10.49604  -8.45687  -6.37915  -6.37863  -6.37737
 Alpha  occ. eigenvalues --   -1.22506  -1.13449  -1.12836  -1.10708  -1.08875
 Alpha  occ. eigenvalues --   -1.05994  -1.02391  -1.00146  -0.95820  -0.95222
 Alpha  occ. eigenvalues --   -0.93467  -0.90114  -0.88566  -0.86523  -0.85385
 Alpha  occ. eigenvalues --   -0.84919  -0.84847  -0.83712  -0.83318  -0.83042
 Alpha  occ. eigenvalues --   -0.76563  -0.76013  -0.75550  -0.74218  -0.73246
 Alpha  occ. eigenvalues --   -0.71750  -0.68231  -0.68130  -0.67746  -0.67476
 Alpha  occ. eigenvalues --   -0.66426  -0.65481  -0.64884  -0.63329  -0.60509
 Alpha  occ. eigenvalues --   -0.60379  -0.59942  -0.59407  -0.57948  -0.57686
 Alpha  occ. eigenvalues --   -0.57150  -0.56382  -0.55653  -0.55080  -0.54383
 Alpha  occ. eigenvalues --   -0.53554  -0.53060  -0.52662  -0.52459  -0.52175
 Alpha  occ. eigenvalues --   -0.51674  -0.50815  -0.50129  -0.49923  -0.49364
 Alpha  occ. eigenvalues --   -0.49246  -0.48926  -0.48498  -0.48190  -0.48023
 Alpha  occ. eigenvalues --   -0.47714  -0.47642  -0.47155  -0.46193  -0.45823
 Alpha  occ. eigenvalues --   -0.45325  -0.45173  -0.44392  -0.44051  -0.43187
 Alpha  occ. eigenvalues --   -0.42467  -0.42333  -0.41196  -0.40871  -0.40753
 Alpha  occ. eigenvalues --   -0.40666  -0.40398  -0.40137  -0.39841  -0.39417
 Alpha  occ. eigenvalues --   -0.39125  -0.38907  -0.38709  -0.38302  -0.37772
 Alpha  occ. eigenvalues --   -0.37439  -0.36519  -0.36441  -0.36045  -0.35026
 Alpha  occ. eigenvalues --   -0.34561  -0.34292  -0.31827  -0.31314  -0.30023
 Alpha  occ. eigenvalues --   -0.29288  -0.28819  -0.27773  -0.24369  -0.24039
 Alpha virt. eigenvalues --   -0.01232   0.00581   0.03203   0.03573   0.10160
 Alpha virt. eigenvalues --    0.10594   0.11348   0.12566   0.13166   0.13326
 Alpha virt. eigenvalues --    0.14155   0.14425   0.15070   0.15530   0.15542

 Mulliken charges:
               1
     1  C   -0.306488
     2  C   -0.307789
     3  C   -0.311291
     4  C   -0.060532
     5  C    0.065443
     6  C   -0.306788
     7  H    0.175457
     8  H    0.163259
     9  H    0.166742
    10  H    0.151364
    11  H    0.164887
    12  H    0.207413
    13  H    0.174433
    14  H    0.192439
    15  H    0.160527
    16  H    0.156451
    17  N   -0.437373
    18  C    0.079850
    19  C    0.080491
    20  C   -0.210199
    21  H    0.202837
    22  C   -0.221083
    23  H    0.243701
    24  C    0.449018
    25  H    0.192044
    26  H    0.209728
    27  N   -0.518233
    28  C   -0.164888
    29  H    0.167084
    30  H    0.220679
    31  C   -0.145272
    32  H    0.160368
    33  H    0.205387
    34  N   -0.811725
    35  S    1.237867
    36  O   -0.603720
    37  O   -0.591725
    38  C    0.049561
    39  C   -0.197022
    40  C   -0.192623
    41  C   -0.172460
    42  C   -0.165278
    43  C   -0.205181
    44  H    0.234855
    45  H    0.141452
    46  H    0.156265
    47  H    0.159879
    48  H    0.154352
    49  O   -0.601086
    50  H    0.450862
    51  C    0.715100
    52  O   -0.687235
    53  O   -0.701804
    54  H    0.432546
    55  C   -0.340103
    56  H    0.143950
    57  H    0.150963
    58  C   -0.079833
    59  H    0.130613
    60  H    0.156362
    61  C   -0.666230
    62  H    0.267146
    63  H    0.200304
    64  H    0.222947
    65  C   -0.285122
    66  H    0.142815
    67  H    0.140532
    68  C   -0.475061
    69  H    0.148347
    70  H    0.149147
    71  H    0.148685
    72  C   -0.334108
    73  H    0.184315
    74  H    0.160014
    75  C   -0.338377
    76  H    0.205383
    77  H    0.164763
 Sum of Mulliken charges =  -0.00000

 Dipole moment (field-independent basis, Debye):
    X=             -3.5501    Y=             -1.5056    Z=             -5.7155  Tot=              6.8947
 Quadrupole moment (field-independent basis, Debye-Ang):
   XX=           -208.5523   YY=           -222.5685   ZZ=           -218.2099
   XY=            -13.4580   XZ=             -4.1521   YZ=             10.7998

 Normal termination of Gaussian 16 at Thu Feb  7 09:44:35 2019.
