 Gaussian 16, Revision A.03,
 Gaussian 16:  ES64L-G16RevA.03 25-Dec-2016

 ------------------------------------------
 #p M062X/6-31G* em=gd3 force int=ultrafine
 ------------------------------------------

 -----
 Title
 -----
 Symbolic Z-matrix:
 Charge =  0 Multiplicity = 1

                         Standard orientation:
 ---------------------------------------------------------------------
 Center     Atomic      Atomic             Coordinates (Angstroms)
 Number     Number       Type             X           Y           Z
 ---------------------------------------------------------------------
      1          6           0       -4.865201    0.502555   -0.557452
      2          6           0       -5.036689   -0.798139   -1.347526
      3          6           0       -3.696267   -1.265008   -1.927730
      4          6           0       -2.702572   -1.464391   -0.787797
      5          6           0       -2.500803   -0.146404   -0.001617
      6          6           0       -3.835921    0.345418    0.565312
      7          1           0       -3.808331   -2.193587   -2.497382
      8          1           0       -5.438096   -1.579217   -0.688574
      9          1           0       -5.758937   -0.661573   -2.158397
     10          1           0       -4.530656    1.295988   -1.239636
     11          1           0       -5.826548    0.820102   -0.141059
     12          1           0       -3.088119   -2.224461   -0.100453
     13          1           0       -2.154442    0.604174   -0.723754
     14          1           0       -4.199295   -0.363425    1.316955
     15          1           0       -3.658616    1.306239    1.061430
     16          1           0       -3.332833   -0.489982   -2.615844
     17          7           0       -1.372549   -1.944889   -1.217272
     18          6           0       -0.686872   -1.297178   -2.197226
     19          6           0       -0.679317   -2.740312   -0.360067
     20          6           0        0.664024   -1.393858   -2.326803
     21          1           0       -1.274959   -0.670956   -2.855911
     22          6           0        0.673257   -2.873436   -0.415685
     23          1           0       -1.265912   -3.220842    0.415226
     24          6           0        1.422963   -2.110776   -1.353271
     25          1           0        1.152485   -0.850616   -3.124696
     26          1           0        1.156823   -3.473531    0.341973
     27          7           0        2.749873   -2.078798   -1.323511
     28          6           0        3.485986   -2.571969   -0.148339
     29          1           0        3.343750   -3.649657   -0.027366
     30          1           0        3.115286   -2.030865    0.733886
     31          6           0        3.518646   -1.043412   -2.035010
     32          1           0        3.778082   -1.396709   -3.040849
     33          1           0        2.922574   -0.129618   -2.086596
     34          7           0       -1.413361   -0.238217    0.956863
     35         16           0       -1.423120   -1.093519    2.347596
     36          8           0       -2.658985   -1.878970    2.359248
     37          8           0       -0.151106   -1.803014    2.484249
     38          6           0       -0.526463    2.663030   -0.076855
     39          6           0       -0.045868    2.070248   -1.253018
     40          6           0       -0.788653    2.144577   -2.431161
     41          6           0       -2.024178    2.791164   -2.459118
     42          6           0       -2.513732    3.372939   -1.291303
     43          6           0       -1.766028    3.308668   -0.115805
     44          1           0        0.886751    1.509948   -1.200906
     45          1           0       -0.392973    1.697036   -3.340904
     46          1           0       -2.596473    2.847890   -3.380967
     47          1           0       -3.474963    3.879520   -1.295626
     48          1           0       -2.154592    3.768842    0.790624
     49          8           0        0.710219    1.403458    1.688528
     50          1           0       -0.500110    0.197449    0.762838
     51          6           0        2.026867    0.761010    1.173374
     52          8           0        1.827092    0.188043    0.030382
     53          8           0        2.287867   -0.124655    2.246122
     54          1           0        1.582758   -0.795131    2.196106
     55          6           0        3.138496    1.830282    1.245638
     56          1           0        2.942067    2.517157    2.078955
     57          1           0        4.058351    1.293619    1.511930
     58          6           0        0.268513    2.649196    1.227399
     59          1           0       -0.388643    3.057662    2.009526
     60          1           0        1.106040    3.356300    1.139045
     61          6           0       -1.455708    0.129681    3.637331
     62          1           0       -0.566577    0.748240    3.480762
     63          1           0       -2.375428    0.708535    3.540471
     64          1           0       -1.418549   -0.392779    4.594656
     65          6           0        3.376311    2.598215   -0.052419
     66          1           0        3.637654    1.884218   -0.841917
     67          1           0        2.456063    3.083964   -0.397785
     68          6           0        4.476682    3.646138    0.100004
     69          1           0        4.667543    4.176211   -0.838301
     70          1           0        4.203480    4.391128    0.855772
     71          1           0        5.415564    3.182848    0.423516
     72          6           0        4.928195   -2.188488   -0.457453
     73          1           0        5.534612   -2.128586    0.448147
     74          1           0        5.381857   -2.920884   -1.134733
     75          6           0        4.750839   -0.837646   -1.151706
     76          1           0        4.500783   -0.082071   -0.401631
     77          1           0        5.624972   -0.514457   -1.721043
 ---------------------------------------------------------------------

 SCF Done:  E(RM062X) =  -1991.35585397     A.U. after   15 cycles

 The electronic state is 1-A.
 Alpha  occ. eigenvalues --  -90.14809 -19.62396 -19.62172 -19.58577 -19.56828
 Alpha  occ. eigenvalues --  -19.50470 -14.85226 -14.80077 -14.76729 -10.63191
 Alpha  occ. eigenvalues --  -10.62652 -10.62163 -10.62055 -10.61094 -10.59899
 Alpha  occ. eigenvalues --  -10.57817 -10.57794 -10.57629 -10.57015 -10.57001
 Alpha  occ. eigenvalues --  -10.56911 -10.56280 -10.55890 -10.55099 -10.55077
 Alpha  occ. eigenvalues --  -10.54992 -10.54832 -10.54690 -10.54678 -10.54630
 Alpha  occ. eigenvalues --  -10.54451 -10.54121 -10.53069 -10.51093 -10.50984
 Alpha  occ. eigenvalues --  -10.49472  -8.45776  -6.38004  -6.37957  -6.37818
 Alpha  occ. eigenvalues --   -1.22588  -1.13511  -1.12894  -1.10806  -1.08926
 Alpha  occ. eigenvalues --   -1.05820  -1.02528  -0.99595  -0.95869  -0.95178
 Alpha  occ. eigenvalues --   -0.93505  -0.90168  -0.88606  -0.86528  -0.85325
 Alpha  occ. eigenvalues --   -0.84926  -0.84868  -0.83747  -0.83255  -0.83092
 Alpha  occ. eigenvalues --   -0.76603  -0.75926  -0.75594  -0.74259  -0.73288
 Alpha  occ. eigenvalues --   -0.71789  -0.68224  -0.68170  -0.67773  -0.67516
 Alpha  occ. eigenvalues --   -0.66459  -0.65496  -0.64838  -0.63384  -0.60494
 Alpha  occ. eigenvalues --   -0.60355  -0.59967  -0.59468  -0.57900  -0.57693
 Alpha  occ. eigenvalues --   -0.57199  -0.56441  -0.55737  -0.55120  -0.54370
 Alpha  occ. eigenvalues --   -0.53584  -0.53085  -0.52695  -0.52479  -0.52123
 Alpha  occ. eigenvalues --   -0.51703  -0.50808  -0.50186  -0.49916  -0.49343
 Alpha  occ. eigenvalues --   -0.49213  -0.48979  -0.48437  -0.48149  -0.47977
 Alpha  occ. eigenvalues --   -0.47734  -0.47623  -0.47172  -0.46150  -0.45823
 Alpha  occ. eigenvalues --   -0.45200  -0.45080  -0.44368  -0.43917  -0.43225
 Alpha  occ. eigenvalues --   -0.42509  -0.42300  -0.41138  -0.40931  -0.40808
 Alpha  occ. eigenvalues --   -0.40672  -0.40433  -0.40059  -0.39841  -0.39383
 Alpha  occ. eigenvalues --   -0.39200  -0.38910  -0.38584  -0.38350  -0.37850
 Alpha  occ. eigenvalues --   -0.37350  -0.36504  -0.36425  -0.36084  -0.35000
 Alpha  occ. eigenvalues --   -0.34489  -0.34265  -0.31781  -0.31342  -0.29975
 Alpha  occ. eigenvalues --   -0.29166  -0.28801  -0.27750  -0.24087  -0.23881
 Alpha virt. eigenvalues --   -0.01266   0.00535   0.03253   0.03580   0.10134
 Alpha virt. eigenvalues --    0.10590   0.11326   0.12545   0.13171   0.13276
 Alpha virt. eigenvalues --    0.14114   0.14425   0.14963   0.15484   0.15553

 Mulliken charges:
               1
     1  C   -0.306404
     2  C   -0.307817
     3  C   -0.310800
     4  C   -0.059456
     5  C    0.062087
     6  C   -0.307495
     7  H    0.175580
     8  H    0.163239
     9  H    0.166862
    10  H    0.150989
    11  H    0.165077
    12  H    0.206782
    13  H    0.175458
    14  H    0.193627
    15  H    0.161860
    16  H    0.156181
    17  N   -0.437444
    18  C    0.076793
    19  C    0.076405
    20  C   -0.207343
    21  H    0.203517
    22  C   -0.218466
    23  H    0.243053
    24  C    0.449795
    25  H    0.192191
    26  H    0.210017
    27  N   -0.519148
    28  C   -0.166970
    29  H    0.166996
    30  H    0.223213
    31  C   -0.146766
    32  H    0.160657
    33  H    0.205763
    34  N   -0.803804
    35  S    1.240625
    36  O   -0.603204
    37  O   -0.591786
    38  C    0.053944
    39  C   -0.196095
    40  C   -0.192043
    41  C   -0.172345
    42  C   -0.165491
    43  C   -0.205541
    44  H    0.231330
    45  H    0.141638
    46  H    0.155951
    47  H    0.159498
    48  H    0.153658
    49  O   -0.587218
    50  H    0.444579
    51  C    0.717407
    52  O   -0.700726
    53  O   -0.706411
    54  H    0.432261
    55  C   -0.340648
    56  H    0.143547
    57  H    0.150335
    58  C   -0.082512
    59  H    0.132670
    60  H    0.155059
    61  C   -0.665439
    62  H    0.271087
    63  H    0.199989
    64  H    0.222069
    65  C   -0.285541
    66  H    0.140988
    67  H    0.140556
    68  C   -0.474414
    69  H    0.147891
    70  H    0.149855
    71  H    0.147906
    72  C   -0.333765
    73  H    0.184940
    74  H    0.160063
    75  C   -0.338936
    76  H    0.204266
    77  H    0.165775
 Sum of Mulliken charges =  -0.00000

 Dipole moment (field-independent basis, Debye):
    X=             -3.6025    Y=             -1.7701    Z=             -5.7663  Tot=              7.0258
 Quadrupole moment (field-independent basis, Debye-Ang):
   XX=           -208.5159   YY=           -222.0328   ZZ=           -218.6962
   XY=            -13.2478   XZ=             -4.1393   YZ=             10.6604

 Normal termination of Gaussian 16 at Thu Feb  7 10:53:36 2019.
