 Gaussian 16, Revision A.03,
 Gaussian 16:  ES64L-G16RevA.03 25-Dec-2016

 ------------------------------------------
 #p M062X/6-31G* em=gd3 force int=ultrafine
 ------------------------------------------

 -----
 Title
 -----
 Symbolic Z-matrix:
 Charge =  0 Multiplicity = 1

                         Standard orientation:
 ---------------------------------------------------------------------
 Center     Atomic      Atomic             Coordinates (Angstroms)
 Number     Number       Type             X           Y           Z
 ---------------------------------------------------------------------
      1          6           0       -4.861544    0.299936   -0.477266
      2          6           0       -4.981168   -0.982234   -1.306340
      3          6           0       -3.621913   -1.380051   -1.895523
      4          6           0       -2.624543   -1.567443   -0.756529
      5          6           0       -2.460124   -0.260818    0.070074
      6          6           0       -3.825089    0.150178    0.640492
      7          1           0       -3.700779   -2.294253   -2.494814
      8          1           0       -5.352403   -1.797016   -0.671097
      9          1           0       -5.706815   -0.851518   -2.115933
     10          1           0       -4.553935    1.123163   -1.137710
     11          1           0       -5.837628    0.571313   -0.061215
     12          1           0       -2.972704   -2.363356   -0.090783
     13          1           0       -2.189379    0.510745   -0.667130
     14          1           0       -4.154424   -0.594033    1.375990
     15          1           0       -3.689877    1.104168    1.164269
     16          1           0       -3.291899   -0.569841   -2.560288
     17          7           0       -1.271504   -1.981136   -1.201408
     18          6           0       -0.628824   -1.304974   -2.182582
     19          6           0       -0.540067   -2.744936   -0.355281
     20          6           0        0.726553   -1.358562   -2.340030
     21          1           0       -1.248270   -0.691061   -2.823617
     22          6           0        0.819132   -2.846631   -0.448058
     23          1           0       -1.094381   -3.234803    0.438155
     24          6           0        1.522951   -2.073861   -1.402531
     25          1           0        1.179680   -0.794470   -3.144763
     26          1           0        1.331791   -3.430160    0.303657
     27          7           0        2.862222   -2.004239   -1.401802
     28          6           0        3.629366   -2.497071   -0.249430
     29          1           0        3.548344   -3.584291   -0.164615
     30          1           0        3.235513   -2.035732    0.667001
     31          6           0        3.586929   -0.935202   -2.109091
     32          1           0        3.854981   -1.265534   -3.119702
     33          1           0        2.961946   -0.040314   -2.167713
     34          7           0       -1.339114   -0.306446    0.978271
     35         16           0       -1.339618   -1.200584    2.283396
     36          8           0       -2.423233   -2.206182    2.316186
     37          8           0        0.031360   -1.741047    2.489450
     38          6           0       -0.842847    2.804652   -0.104407
     39          6           0       -0.234238    2.138482   -1.176183
     40          6           0       -0.860362    2.113347   -2.421123
     41          6           0       -2.108750    2.710630   -2.603293
     42          6           0       -2.729302    3.343883   -1.529631
     43          6           0       -2.092703    3.390019   -0.292320
     44          1           0        0.705983    1.612033   -1.020084
     45          1           0       -0.373105    1.620925   -3.260293
     46          1           0       -2.596141    2.682806   -3.573303
     47          1           0       -3.706568    3.801457   -1.649212
     48          1           0       -2.572837    3.877790    0.552455
     49          8           0        0.297026    1.639774    1.692097
     50          1           0       -0.302767    0.910333    1.318936
     51          6           0        2.436157    0.579624    1.163902
     52          8           0        2.095057    0.171493    0.071204
     53          8           0        2.280787   -0.114495    2.286483
     54          1           0        1.545766   -0.774612    2.182070
     55          6           0        3.162834    1.888770    1.373160
     56          1           0        2.622067    2.426565    2.158915
     57          1           0        4.159200    1.666084    1.778344
     58          6           0       -0.191182    2.870626    1.259949
     59          1           0       -0.916007    3.289040    1.976481
     60          1           0        0.662225    3.565514    1.232780
     61          6           0       -1.566618   -0.078772    3.662854
     62          1           0       -0.777543    0.672179    3.576162
     63          1           0       -2.550284    0.387255    3.578064
     64          1           0       -1.476555   -0.635108    4.596642
     65          6           0        3.273102    2.726181    0.101687
     66          1           0        3.668112    2.106968   -0.712368
     67          1           0        2.272347    3.034748   -0.222366
     68          6           0        4.157260    3.954799    0.299437
     69          1           0        4.266720    4.522810   -0.628974
     70          1           0        3.738238    4.626749    1.055912
     71          1           0        5.158661    3.663465    0.634552
     72          6           0        5.051473   -2.026973   -0.540350
     73          1           0        5.646067   -1.939868    0.371300
     74          1           0        5.551004   -2.730477   -1.214073
     75          6           0        4.823102   -0.685084   -1.239367
     76          1           0        4.581491    0.079396   -0.495917
     77          1           0        5.681322   -0.344386   -1.822167
 ---------------------------------------------------------------------

 SCF Done:  E(RM062X) =  -1991.38217992     A.U. after   15 cycles

 The electronic state is 1-A.
 Alpha  occ. eigenvalues --  -90.10224 -19.63618 -19.60247 -19.58665 -19.58290
 Alpha  occ. eigenvalues --  -19.58286 -14.84804 -14.80425 -14.69273 -10.65831
 Alpha  occ. eigenvalues --  -10.63221 -10.62445 -10.61625 -10.59259 -10.59073
 Alpha  occ. eigenvalues --  -10.58891 -10.57837 -10.57334 -10.56776 -10.56723
 Alpha  occ. eigenvalues --  -10.55934 -10.55695 -10.55634 -10.55099 -10.55028
 Alpha  occ. eigenvalues --  -10.54942 -10.54658 -10.54615 -10.54520 -10.53997
 Alpha  occ. eigenvalues --  -10.53602 -10.53548 -10.53510 -10.53306 -10.52922
 Alpha  occ. eigenvalues --  -10.52624  -8.41176  -6.33413  -6.33322  -6.33244
 Alpha  occ. eigenvalues --   -1.19346  -1.17679  -1.12930  -1.10139  -1.10034
 Alpha  occ. eigenvalues --   -1.09074  -1.05976  -0.97554  -0.95379  -0.94739
 Alpha  occ. eigenvalues --   -0.92194  -0.89822  -0.88565  -0.88382  -0.85108
 Alpha  occ. eigenvalues --   -0.84823  -0.83723  -0.83556  -0.83278  -0.80000
 Alpha  occ. eigenvalues --   -0.79425  -0.76315  -0.75611  -0.74652  -0.70954
 Alpha  occ. eigenvalues --   -0.70284  -0.69362  -0.68661  -0.68351  -0.68114
 Alpha  occ. eigenvalues --   -0.66011  -0.64766  -0.63914  -0.63513  -0.61607
 Alpha  occ. eigenvalues --   -0.60287  -0.59376  -0.59125  -0.58365  -0.56170
 Alpha  occ. eigenvalues --   -0.55730  -0.55325  -0.55173  -0.54486  -0.53917
 Alpha  occ. eigenvalues --   -0.53474  -0.53055  -0.52646  -0.51834  -0.51640
 Alpha  occ. eigenvalues --   -0.51065  -0.50943  -0.50628  -0.50006  -0.49837
 Alpha  occ. eigenvalues --   -0.49747  -0.49523  -0.48768  -0.48316  -0.48043
 Alpha  occ. eigenvalues --   -0.47732  -0.47252  -0.47092  -0.46999  -0.45799
 Alpha  occ. eigenvalues --   -0.45519  -0.45163  -0.43975  -0.43734  -0.43488
 Alpha  occ. eigenvalues --   -0.43044  -0.42839  -0.42147  -0.42026  -0.41815
 Alpha  occ. eigenvalues --   -0.41233  -0.40934  -0.40517  -0.39898  -0.39661
 Alpha  occ. eigenvalues --   -0.39408  -0.39366  -0.39126  -0.38401  -0.38105
 Alpha  occ. eigenvalues --   -0.37414  -0.36297  -0.35833  -0.35328  -0.35177
 Alpha  occ. eigenvalues --   -0.34228  -0.32964  -0.31966  -0.31697  -0.31220
 Alpha  occ. eigenvalues --   -0.29980  -0.28782  -0.28344  -0.27297  -0.25346
 Alpha virt. eigenvalues --   -0.01081   0.00679   0.03100   0.03671   0.08817
 Alpha virt. eigenvalues --    0.10151   0.10970   0.11775   0.12965   0.13492
 Alpha virt. eigenvalues --    0.13759   0.14313   0.14994   0.15445   0.15866

 Mulliken charges:
               1
     1  C   -0.303864
     2  C   -0.304431
     3  C   -0.309879
     4  C   -0.071087
     5  C    0.069155
     6  C   -0.304783
     7  H    0.167135
     8  H    0.161529
     9  H    0.159325
    10  H    0.144744
    11  H    0.157169
    12  H    0.208737
    13  H    0.140127
    14  H    0.181958
    15  H    0.150124
    16  H    0.149821
    17  N   -0.424377
    18  C    0.097065
    19  C    0.092575
    20  C   -0.226419
    21  H    0.204522
    22  C   -0.227643
    23  H    0.258810
    24  C    0.426166
    25  H    0.187427
    26  H    0.207946
    27  N   -0.526206
    28  C   -0.159300
    29  H    0.178141
    30  H    0.197982
    31  C   -0.145471
    32  H    0.169581
    33  H    0.193706
    34  N   -0.771305
    35  S    1.245311
    36  O   -0.637195
    37  O   -0.667813
    38  C    0.052174
    39  C   -0.176634
    40  C   -0.188809
    41  C   -0.169524
    42  C   -0.160413
    43  C   -0.199935
    44  H    0.203659
    45  H    0.139927
    46  H    0.157327
    47  H    0.162535
    48  H    0.158790
    49  O   -0.717791
    50  H    0.486264
    51  C    0.665637
    52  O   -0.518841
    53  O   -0.647312
    54  H    0.481934
    55  C   -0.375026
    56  H    0.202284
    57  H    0.167447
    58  C   -0.062868
    59  H    0.126308
    60  H    0.142988
    61  C   -0.664948
    62  H    0.231676
    63  H    0.184858
    64  H    0.205484
    65  C   -0.291320
    66  H    0.147109
    67  H    0.162263
    68  C   -0.480596
    69  H    0.159921
    70  H    0.158900
    71  H    0.152198
    72  C   -0.335829
    73  H    0.184294
    74  H    0.169540
    75  C   -0.335500
    76  H    0.179868
    77  H    0.172680
 Sum of Mulliken charges =  -0.00000

 Dipole moment (field-independent basis, Debye):
    X=              1.6799    Y=              0.1430    Z=             -6.7860  Tot=              6.9923
 Quadrupole moment (field-independent basis, Debye-Ang):
   XX=           -200.2844   YY=           -222.4836   ZZ=           -222.9593
   XY=            -11.6062   XZ=              1.0012   YZ=             13.1487

 Normal termination of Gaussian 16 at Thu Feb  7 21:40:55 2019.
