 Gaussian 16, Revision A.03,
 Gaussian 16:  ES64L-G16RevA.03 25-Dec-2016

 ------------------------------------------
 #p M062X/6-31G* em=gd3 force int=ultrafine
 ------------------------------------------

 -----
 Title
 -----
 Symbolic Z-matrix:
 Charge =  0 Multiplicity = 1

                         Standard orientation:
 ---------------------------------------------------------------------
 Center     Atomic      Atomic             Coordinates (Angstroms)
 Number     Number       Type             X           Y           Z
 ---------------------------------------------------------------------
      1          6           0       -4.864382    0.497613   -0.555886
      2          6           0       -5.038045   -0.806960   -1.339178
      3          6           0       -3.699120   -1.277211   -1.920074
      4          6           0       -2.703048   -1.470250   -0.781223
      5          6           0       -2.498254   -0.147302   -0.004145
      6          6           0       -3.831753    0.346602    0.564927
      7          1           0       -3.812626   -2.208913   -2.484311
      8          1           0       -5.438201   -1.584695   -0.675524
      9          1           0       -5.762122   -0.674166   -2.149058
     10          1           0       -4.532270    1.287819   -1.242945
     11          1           0       -5.824679    0.816779   -0.138254
     12          1           0       -3.087350   -2.225748   -0.088190
     13          1           0       -2.156462    0.599428   -0.732380
     14          1           0       -4.193174   -0.358656    1.320799
     15          1           0       -3.653801    1.309987    1.055699
     16          1           0       -3.337088   -0.506088   -2.613293
     17          7           0       -1.374101   -1.953773   -1.210476
     18          6           0       -0.689241   -1.309376   -2.193259
     19          6           0       -0.680245   -2.745438   -0.350195
     20          6           0        0.661740   -1.405114   -2.322300
     21          1           0       -1.278064   -0.686171   -2.854206
     22          6           0        0.672435   -2.877112   -0.405040
     23          1           0       -1.266360   -3.222564    0.427587
     24          6           0        1.421088   -2.116585   -1.345115
     25          1           0        1.149781   -0.864559   -3.122265
     26          1           0        1.156812   -3.472941    0.355453
     27          7           0        2.747755   -2.081171   -1.314220
     28          6           0        3.484955   -2.569012   -0.137588
     29          1           0        3.343113   -3.646209   -0.011919
     30          1           0        3.114831   -2.024051    0.742567
     31          6           0        3.514075   -1.046730   -2.029315
     32          1           0        3.771663   -1.401653   -3.035076
     33          1           0        2.916573   -0.133777   -2.081620
     34          7           0       -1.406149   -0.229809    0.950696
     35         16           0       -1.414794   -1.077894    2.347569
     36          8           0       -2.651603   -1.861822    2.366926
     37          8           0       -0.143240   -1.787960    2.484741
     38          6           0       -0.525153    2.656507   -0.082552
     39          6           0       -0.046893    2.066659   -1.261352
     40          6           0       -0.793849    2.138055   -2.437061
     41          6           0       -2.031015    2.781462   -2.461763
     42          6           0       -2.517760    3.362617   -1.292523
     43          6           0       -1.766417    3.299594   -0.119170
     44          1           0        0.887448    1.509839   -1.213113
     45          1           0       -0.399506    1.691001   -3.347645
     46          1           0       -2.606211    2.836537   -3.381929
     47          1           0       -3.479641    3.868015   -1.294084
     48          1           0       -2.153494    3.760163    0.787691
     49          8           0        0.720958    1.419757    1.704164
     50          1           0       -0.483623    0.164944    0.727046
     51          6           0        2.016190    0.769764    1.176073
     52          8           0        1.796539    0.188766    0.037454
     53          8           0        2.292551   -0.114793    2.247497
     54          1           0        1.586145   -0.784567    2.206675
     55          6           0        3.139225    1.829984    1.227463
     56          1           0        2.954850    2.523393    2.058184
     57          1           0        4.057681    1.288998    1.489536
     58          6           0        0.273745    2.655331    1.220689
     59          1           0       -0.383445    3.071295    1.998382
     60          1           0        1.108747    3.364198    1.122020
     61          6           0       -1.446740    0.150584    3.631964
     62          1           0       -0.557095    0.767867    3.473876
     63          1           0       -2.366192    0.729388    3.532164
     64          1           0       -1.411719   -0.369054    4.591013
     65          6           0        3.372443    2.590768   -0.075597
     66          1           0        3.625975    1.872892   -0.864284
     67          1           0        2.452893    3.080217   -0.417247
     68          6           0        4.478864    3.634028    0.066712
     69          1           0        4.667439    4.159861   -0.874440
     70          1           0        4.212960    4.383055    0.821122
     71          1           0        5.417255    3.167732    0.387382
     72          6           0        4.926672   -2.186722   -0.450410
     73          1           0        5.534708   -2.123525    0.453850
     74          1           0        5.379100   -2.921542   -1.125911
     75          6           0        4.748123   -0.838322   -1.149135
     76          1           0        4.500724   -0.079963   -0.400971
     77          1           0        5.621108   -0.517193   -1.721404
 ---------------------------------------------------------------------

 SCF Done:  E(RM062X) =  -1991.35596693     A.U. after   15 cycles

 The electronic state is 1-A.
 Alpha  occ. eigenvalues --  -90.14816 -19.62397 -19.62194 -19.58566 -19.56745
 Alpha  occ. eigenvalues --  -19.50442 -14.85247 -14.80110 -14.76775 -10.63217
 Alpha  occ. eigenvalues --  -10.62676 -10.62184 -10.61996 -10.61093 -10.59894
 Alpha  occ. eigenvalues --  -10.57860 -10.57819 -10.57652 -10.57043 -10.56985
 Alpha  occ. eigenvalues --  -10.56913 -10.56242 -10.55892 -10.55100 -10.55049
 Alpha  occ. eigenvalues --  -10.54963 -10.54800 -10.54707 -10.54693 -10.54599
 Alpha  occ. eigenvalues --  -10.54442 -10.54171 -10.53034 -10.51094 -10.50990
 Alpha  occ. eigenvalues --  -10.49431  -8.45783  -6.38010  -6.37966  -6.37823
 Alpha  occ. eigenvalues --   -1.22595  -1.13539  -1.12926  -1.10822  -1.08966
 Alpha  occ. eigenvalues --   -1.05764  -1.02536  -0.99438  -0.95883  -0.95149
 Alpha  occ. eigenvalues --   -0.93523  -0.90196  -0.88629  -0.86507  -0.85314
 Alpha  occ. eigenvalues --   -0.84919  -0.84869  -0.83782  -0.83221  -0.83099
 Alpha  occ. eigenvalues --   -0.76624  -0.75910  -0.75621  -0.74259  -0.73280
 Alpha  occ. eigenvalues --   -0.71801  -0.68233  -0.68172  -0.67787  -0.67531
 Alpha  occ. eigenvalues --   -0.66471  -0.65498  -0.64818  -0.63411  -0.60493
 Alpha  occ. eigenvalues --   -0.60338  -0.59966  -0.59493  -0.57878  -0.57689
 Alpha  occ. eigenvalues --   -0.57226  -0.56462  -0.55765  -0.55124  -0.54357
 Alpha  occ. eigenvalues --   -0.53596  -0.53077  -0.52697  -0.52477  -0.52094
 Alpha  occ. eigenvalues --   -0.51704  -0.50816  -0.50213  -0.49916  -0.49339
 Alpha  occ. eigenvalues --   -0.49200  -0.48991  -0.48408  -0.48142  -0.47955
 Alpha  occ. eigenvalues --   -0.47736  -0.47616  -0.47174  -0.46153  -0.45841
 Alpha  occ. eigenvalues --   -0.45183  -0.45016  -0.44355  -0.43877  -0.43242
 Alpha  occ. eigenvalues --   -0.42530  -0.42283  -0.41129  -0.40967  -0.40838
 Alpha  occ. eigenvalues --   -0.40673  -0.40457  -0.40029  -0.39842  -0.39371
 Alpha  occ. eigenvalues --   -0.39209  -0.38932  -0.38535  -0.38357  -0.37863
 Alpha  occ. eigenvalues --   -0.37319  -0.36516  -0.36414  -0.36086  -0.34994
 Alpha  occ. eigenvalues --   -0.34467  -0.34248  -0.31821  -0.31298  -0.29946
 Alpha  occ. eigenvalues --   -0.29104  -0.28775  -0.27750  -0.24036  -0.23865
 Alpha virt. eigenvalues --   -0.01294   0.00506   0.03284   0.03602   0.10130
 Alpha virt. eigenvalues --    0.10595   0.11332   0.12532   0.13175   0.13261
 Alpha virt. eigenvalues --    0.14099   0.14411   0.14906   0.15462   0.15552

 Mulliken charges:
               1
     1  C   -0.306420
     2  C   -0.307805
     3  C   -0.310717
     4  C   -0.059072
     5  C    0.060578
     6  C   -0.307916
     7  H    0.175549
     8  H    0.163213
     9  H    0.166881
    10  H    0.151042
    11  H    0.165112
    12  H    0.206733
    13  H    0.175696
    14  H    0.193947
    15  H    0.162361
    16  H    0.156177
    17  N   -0.437271
    18  C    0.075707
    19  C    0.074599
    20  C   -0.206685
    21  H    0.203825
    22  C   -0.217249
    23  H    0.243026
    24  C    0.449750
    25  H    0.192298
    26  H    0.210199
    27  N   -0.519673
    28  C   -0.167362
    29  H    0.167118
    30  H    0.223886
    31  C   -0.147377
    32  H    0.160922
    33  H    0.205882
    34  N   -0.801478
    35  S    1.241939
    36  O   -0.603299
    37  O   -0.592399
    38  C    0.056467
    39  C   -0.195966
    40  C   -0.191862
    41  C   -0.172413
    42  C   -0.165480
    43  C   -0.206055
    44  H    0.230238
    45  H    0.141389
    46  H    0.155785
    47  H    0.159312
    48  H    0.153371
    49  O   -0.582280
    50  H    0.441993
    51  C    0.718158
    52  O   -0.704758
    53  O   -0.707964
    54  H    0.432461
    55  C   -0.340372
    56  H    0.143607
    57  H    0.150149
    58  C   -0.083091
    59  H    0.133294
    60  H    0.154382
    61  C   -0.665158
    62  H    0.272351
    63  H    0.199834
    64  H    0.221767
    65  C   -0.285727
    66  H    0.139987
    67  H    0.140824
    68  C   -0.474297
    69  H    0.147801
    70  H    0.150086
    71  H    0.147774
    72  C   -0.333684
    73  H    0.185188
    74  H    0.160205
    75  C   -0.339313
    76  H    0.204046
    77  H    0.166239
 Sum of Mulliken charges =  -0.00000

 Dipole moment (field-independent basis, Debye):
    X=             -3.5887    Y=             -1.8651    Z=             -5.8007  Tot=              7.0714
 Quadrupole moment (field-independent basis, Debye-Ang):
   XX=           -208.3756   YY=           -221.9034   ZZ=           -218.8739
   XY=            -13.2141   XZ=             -4.2291   YZ=             10.5974

 Normal termination of Gaussian 16 at Thu Feb  7 11:07:30 2019.
