 Gaussian 16, Revision A.03,
 Gaussian 16:  ES64L-G16RevA.03 25-Dec-2016

 ------------------------------------------
 #p M062X/6-31G* em=gd3 force int=ultrafine
 ------------------------------------------

 -----
 Title
 -----
 Symbolic Z-matrix:
 Charge =  0 Multiplicity = 1

                         Standard orientation:
 ---------------------------------------------------------------------
 Center     Atomic      Atomic             Coordinates (Angstroms)
 Number     Number       Type             X           Y           Z
 ---------------------------------------------------------------------
      1          6           0       -4.844947    0.384333   -0.503827
      2          6           0       -4.978085   -0.885648   -1.349618
      3          6           0       -3.622482   -1.291178   -1.941053
      4          6           0       -2.634042   -1.509832   -0.803008
      5          6           0       -2.457552   -0.226378    0.048932
      6          6           0       -3.815878    0.206884    0.615908
      7          1           0       -3.707588   -2.196468   -2.551826
      8          1           0       -5.360701   -1.704658   -0.726522
      9          1           0       -5.699458   -0.735346   -2.159236
     10          1           0       -4.527687    1.212821   -1.152784
     11          1           0       -5.817934    0.660129   -0.083976
     12          1           0       -2.995791   -2.309058   -0.148798
     13          1           0       -2.147224    0.559600   -0.657709
     14          1           0       -4.160855   -0.539979    1.340104
     15          1           0       -3.668761    1.153205    1.151085
     16          1           0       -3.279322   -0.475021   -2.591696
     17          7           0       -1.285086   -1.936758   -1.248136
     18          6           0       -0.626614   -1.249113   -2.211226
     19          6           0       -0.569865   -2.731193   -0.415582
     20          6           0        0.728644   -1.315251   -2.359364
     21          1           0       -1.233282   -0.614292   -2.843957
     22          6           0        0.788754   -2.844146   -0.497012
     23          1           0       -1.136877   -3.240642    0.355925
     24          6           0        1.508629   -2.054983   -1.426815
     25          1           0        1.195003   -0.739280   -3.147996
     26          1           0        1.289367   -3.451844    0.243751
     27          7           0        2.846692   -1.993881   -1.409910
     28          6           0        3.598349   -2.504457   -0.255154
     29          1           0        3.497210   -3.589975   -0.174220
     30          1           0        3.208705   -2.035108    0.659217
     31          6           0        3.584504   -0.917265   -2.092115
     32          1           0        3.855047   -1.231682   -3.106990
     33          1           0        2.967986   -0.015723   -2.135444
     34          7           0       -1.355307   -0.345093    0.968004
     35         16           0       -1.390740   -1.232145    2.284191
     36          8           0       -2.535672   -2.162710    2.293397
     37          8           0       -0.050806   -1.841336    2.479252
     38          6           0       -0.744524    2.773796   -0.063370
     39          6           0       -0.162832    2.132706   -1.165223
     40          6           0       -0.808493    2.158190   -2.398994
     41          6           0       -2.050619    2.780541   -2.537896
     42          6           0       -2.639206    3.394705   -1.435375
     43          6           0       -1.980543    3.393496   -0.209600
     44          1           0        0.767128    1.580981   -1.035316
     45          1           0       -0.345159    1.682407   -3.261221
     46          1           0       -2.557065    2.789028   -3.498071
     47          1           0       -3.609937    3.871960   -1.521423
     48          1           0       -2.431577    3.860777    0.662249
     49          8           0        0.262802    1.422919    1.636340
     50          1           0       -0.420221    0.704790    1.218184
     51          6           0        2.374164    0.577752    1.173295
     52          8           0        2.084232    0.155886    0.068588
     53          8           0        2.253841   -0.142534    2.289045
     54          1           0        1.531483   -0.808463    2.177924
     55          6           0        3.110870    1.878825    1.397651
     56          1           0        2.618761    2.436393    2.202727
     57          1           0        4.097583    1.591394    1.784272
     58          6           0       -0.097066    2.715910    1.299320
     59          1           0       -0.783197    3.152925    2.043733
     60          1           0        0.800294    3.358921    1.308132
     61          6           0       -1.541946   -0.083350    3.652582
     62          1           0       -0.723705    0.630496    3.524283
     63          1           0       -2.507688    0.420093    3.580316
     64          1           0       -1.451254   -0.627162    4.593991
     65          6           0        3.275884    2.728889    0.139676
     66          1           0        3.662444    2.099192   -0.669864
     67          1           0        2.301342    3.091499   -0.207629
     68          6           0        4.213307    3.911689    0.375144
     69          1           0        4.370095    4.488615   -0.540936
     70          1           0        3.810663    4.591671    1.133494
     71          1           0        5.192161    3.567841    0.726861
     72          6           0        5.027722   -2.055434   -0.539572
     73          1           0        5.626994   -1.998392    0.371214
     74          1           0        5.511077   -2.753013   -1.231337
     75          6           0        4.815221   -0.695718   -1.207741
     76          1           0        4.566646    0.048837   -0.446229
     77          1           0        5.679732   -0.343459   -1.773810
 ---------------------------------------------------------------------

 SCF Done:  E(RM062X) =  -1991.37204423     A.U. after   15 cycles

 The electronic state is 1-A.
 Alpha  occ. eigenvalues --  -90.10665 -19.63429 -19.59799 -19.58662 -19.58642
 Alpha  occ. eigenvalues --  -19.56892 -14.84857 -14.80424 -14.69693 -10.65879
 Alpha  occ. eigenvalues --  -10.63262 -10.62490 -10.61787 -10.59387 -10.59003
 Alpha  occ. eigenvalues --  -10.58832 -10.57854 -10.56965 -10.56846 -10.56633
 Alpha  occ. eigenvalues --  -10.55883 -10.55690 -10.55633 -10.54954 -10.54881
 Alpha  occ. eigenvalues --  -10.54783 -10.54685 -10.54286 -10.54190 -10.53727
 Alpha  occ. eigenvalues --  -10.53683 -10.53595 -10.53524 -10.53465 -10.52926
 Alpha  occ. eigenvalues --  -10.52739  -8.41618  -6.33854  -6.33766  -6.33689
 Alpha  occ. eigenvalues --   -1.19040  -1.18147  -1.13009  -1.09914  -1.09045
 Alpha  occ. eigenvalues --   -1.08360  -1.06478  -0.97997  -0.95197  -0.94893
 Alpha  occ. eigenvalues --   -0.92403  -0.89894  -0.88608  -0.88394  -0.84821
 Alpha  occ. eigenvalues --   -0.84756  -0.83844  -0.83608  -0.83331  -0.80224
 Alpha  occ. eigenvalues --   -0.79412  -0.76362  -0.75652  -0.73990  -0.71124
 Alpha  occ. eigenvalues --   -0.70518  -0.69348  -0.68641  -0.68341  -0.67987
 Alpha  occ. eigenvalues --   -0.65747  -0.64874  -0.63944  -0.63413  -0.61874
 Alpha  occ. eigenvalues --   -0.60352  -0.59524  -0.58864  -0.58352  -0.56269
 Alpha  occ. eigenvalues --   -0.55851  -0.55371  -0.55192  -0.54759  -0.53844
 Alpha  occ. eigenvalues --   -0.53556  -0.53095  -0.52457  -0.51988  -0.51447
 Alpha  occ. eigenvalues --   -0.51210  -0.50926  -0.50712  -0.50050  -0.49780
 Alpha  occ. eigenvalues --   -0.49730  -0.49535  -0.48769  -0.48327  -0.47917
 Alpha  occ. eigenvalues --   -0.47285  -0.47189  -0.47081  -0.46726  -0.45937
 Alpha  occ. eigenvalues --   -0.45591  -0.45273  -0.44122  -0.43795  -0.43515
 Alpha  occ. eigenvalues --   -0.43180  -0.42776  -0.42106  -0.41748  -0.41519
 Alpha  occ. eigenvalues --   -0.41308  -0.40822  -0.40467  -0.39955  -0.39688
 Alpha  occ. eigenvalues --   -0.39426  -0.39338  -0.39103  -0.38538  -0.37995
 Alpha  occ. eigenvalues --   -0.37532  -0.36402  -0.35698  -0.35569  -0.34973
 Alpha  occ. eigenvalues --   -0.34142  -0.33021  -0.32165  -0.31603  -0.30228
 Alpha  occ. eigenvalues --   -0.29874  -0.28376  -0.27977  -0.27245  -0.25689
 Alpha virt. eigenvalues --   -0.01148   0.00647   0.03266   0.03904   0.09285
 Alpha virt. eigenvalues --    0.10151   0.10984   0.11721   0.12933   0.13434
 Alpha virt. eigenvalues --    0.13785   0.14380   0.15096   0.15374   0.15834

 Mulliken charges:
               1
     1  C   -0.304124
     2  C   -0.305063
     3  C   -0.309607
     4  C   -0.067545
     5  C    0.075778
     6  C   -0.305355
     7  H    0.167529
     8  H    0.161957
     9  H    0.159966
    10  H    0.145258
    11  H    0.158029
    12  H    0.207948
    13  H    0.144675
    14  H    0.185832
    15  H    0.150996
    16  H    0.150597
    17  N   -0.425980
    18  C    0.096038
    19  C    0.098401
    20  C   -0.225865
    21  H    0.204950
    22  C   -0.228588
    23  H    0.254895
    24  C    0.426438
    25  H    0.188216
    26  H    0.208043
    27  N   -0.524110
    28  C   -0.159282
    29  H    0.177449
    30  H    0.198310
    31  C   -0.145376
    32  H    0.169242
    33  H    0.194678
    34  N   -0.800909
    35  S    1.246144
    36  O   -0.629935
    37  O   -0.658186
    38  C    0.053801
    39  C   -0.180373
    40  C   -0.189203
    41  C   -0.171137
    42  C   -0.160806
    43  C   -0.199727
    44  H    0.204871
    45  H    0.138753
    46  H    0.156230
    47  H    0.161260
    48  H    0.158323
    49  O   -0.722017
    50  H    0.491990
    51  C    0.681680
    52  O   -0.526007
    53  O   -0.647175
    54  H    0.476717
    55  C   -0.375492
    56  H    0.196492
    57  H    0.168884
    58  C   -0.056418
    59  H    0.117197
    60  H    0.130703
    61  C   -0.669555
    62  H    0.242940
    63  H    0.185555
    64  H    0.206096
    65  C   -0.293107
    66  H    0.147747
    67  H    0.164453
    68  C   -0.480342
    69  H    0.160154
    70  H    0.159074
    71  H    0.152113
    72  C   -0.334743
    73  H    0.183893
    74  H    0.168909
    75  C   -0.335190
    76  H    0.179587
    77  H    0.172425
 Sum of Mulliken charges =  -0.00000

 Dipole moment (field-independent basis, Debye):
    X=              1.6610    Y=              0.0132    Z=             -6.6216  Tot=              6.8268
 Quadrupole moment (field-independent basis, Debye-Ang):
   XX=           -201.2235   YY=           -223.2410   ZZ=           -222.3018
   XY=            -11.4263   XZ=              1.3639   YZ=             13.2034

 Normal termination of Gaussian 16 at Thu Feb  7 20:20:08 2019.
