 Gaussian 16, Revision A.03,
 Gaussian 16:  ES64L-G16RevA.03 25-Dec-2016

 ------------------------------------------
 #p M062X/6-31G* em=gd3 force int=ultrafine
 ------------------------------------------

 -----
 Title
 -----
 Symbolic Z-matrix:
 Charge =  0 Multiplicity = 1

                         Standard orientation:
 ---------------------------------------------------------------------
 Center     Atomic      Atomic             Coordinates (Angstroms)
 Number     Number       Type             X           Y           Z
 ---------------------------------------------------------------------
      1          6           0       -4.844201    0.424016   -0.512794
      2          6           0       -4.988591   -0.848559   -1.352447
      3          6           0       -3.635955   -1.266661   -1.941434
      4          6           0       -2.645372   -1.490509   -0.802774
      5          6           0       -2.463434   -0.200825    0.038165
      6          6           0       -3.816435    0.243561    0.609032
      7          1           0       -3.728038   -2.174296   -2.548046
      8          1           0       -5.379069   -1.661947   -0.726793
      9          1           0       -5.708474   -0.694995   -2.162764
     10          1           0       -4.520145    1.247588   -1.163891
     11          1           0       -5.814105    0.709268   -0.092328
     12          1           0       -3.019091   -2.285341   -0.149482
     13          1           0       -2.135422    0.579083   -0.662411
     14          1           0       -4.170120   -0.499210    1.333100
     15          1           0       -3.662359    1.190105    1.140018
     16          1           0       -3.285876   -0.457219   -2.596194
     17          7           0       -1.304038   -1.932975   -1.247578
     18          6           0       -0.637999   -1.252370   -2.213394
     19          6           0       -0.595051   -2.734879   -0.414048
     20          6           0        0.715412   -1.328217   -2.357910
     21          1           0       -1.239229   -0.616009   -2.849774
     22          6           0        0.760974   -2.852817   -0.487996
     23          1           0       -1.168258   -3.240062    0.355705
     24          6           0        1.490381   -2.066897   -1.417948
     25          1           0        1.187524   -0.757654   -3.146738
     26          1           0        1.256943   -3.463755    0.253049
     27          7           0        2.823570   -2.016047   -1.398479
     28          6           0        3.572340   -2.529582   -0.241799
     29          1           0        3.458191   -3.613642   -0.156031
     30          1           0        3.188850   -2.042688    0.665887
     31          6           0        3.572391   -0.949670   -2.086372
     32          1           0        3.838307   -1.273348   -3.099762
     33          1           0        2.963538   -0.043378   -2.127945
     34          7           0       -1.358526   -0.323207    0.973618
     35         16           0       -1.399392   -1.222069    2.320927
     36          8           0       -2.574428   -2.102260    2.280598
     37          8           0       -0.085695   -1.864064    2.490892
     38          6           0       -0.687048    2.752787   -0.066779
     39          6           0       -0.129797    2.108059   -1.180629
     40          6           0       -0.786375    2.144998   -2.409625
     41          6           0       -2.021893    2.782842   -2.538173
     42          6           0       -2.591385    3.399919   -1.426612
     43          6           0       -1.920401    3.386552   -0.205594
     44          1           0        0.796725    1.548107   -1.058582
     45          1           0       -0.333948    1.670163   -3.278745
     46          1           0       -2.534312    2.804478   -3.495516
     47          1           0       -3.555669    3.893024   -1.506404
     48          1           0       -2.362270    3.863581    0.666411
     49          8           0        0.394558    1.422366    1.626087
     50          1           0       -0.562764    0.461633    1.084007
     51          6           0        2.255878    0.633308    1.176311
     52          8           0        2.051180    0.155074    0.061241
     53          8           0        2.231528   -0.133127    2.289723
     54          1           0        1.532332   -0.811350    2.177021
     55          6           0        3.087397    1.883196    1.387725
     56          1           0        2.665655    2.478853    2.203646
     57          1           0        4.062535    1.520178    1.743318
     58          6           0       -0.000851    2.693770    1.289980
     59          1           0       -0.700745    3.112194    2.039265
     60          1           0        0.856951    3.397737    1.275423
     61          6           0       -1.532788   -0.050862    3.657138
     62          1           0       -0.698322    0.643530    3.509625
     63          1           0       -2.492917    0.461315    3.575549
     64          1           0       -1.452593   -0.591855    4.601118
     65          6           0        3.288791    2.714484    0.123759
     66          1           0        3.670853    2.064923   -0.672567
     67          1           0        2.327782    3.094498   -0.240353
     68          6           0        4.250173    3.878142    0.356436
     69          1           0        4.421732    4.448949   -0.561128
     70          1           0        3.857429    4.568057    1.111158
     71          1           0        5.221017    3.517224    0.714022
     72          6           0        5.005561   -2.098768   -0.532970
     73          1           0        5.607451   -2.045920    0.376214
     74          1           0        5.479430   -2.803733   -1.224341
     75          6           0        4.803630   -0.737831   -1.201433
     76          1           0        4.553371    0.006293   -0.440068
     77          1           0        5.671051   -0.392715   -1.767658
 ---------------------------------------------------------------------

 SCF Done:  E(RM062X) =  -1991.35842411     A.U. after   15 cycles

 The electronic state is 1-A.
 Alpha  occ. eigenvalues --  -90.13248 -19.61246 -19.61176 -19.60922 -19.56887
 Alpha  occ. eigenvalues --  -19.53661 -14.85328 -14.80551 -14.73876 -10.64500
 Alpha  occ. eigenvalues --  -10.63524 -10.62816 -10.62272 -10.60572 -10.58777
 Alpha  occ. eigenvalues --  -10.58704 -10.58609 -10.58070 -10.57244 -10.56462
 Alpha  occ. eigenvalues --  -10.55563 -10.55394 -10.55158 -10.55141 -10.54850
 Alpha  occ. eigenvalues --  -10.54510 -10.54469 -10.54443 -10.54383 -10.53911
 Alpha  occ. eigenvalues --  -10.53718 -10.53322 -10.52928 -10.52209 -10.51934
 Alpha  occ. eigenvalues --  -10.51810  -8.44251  -6.36472  -6.36413  -6.36311
 Alpha  occ. eigenvalues --   -1.21013  -1.16399  -1.13537  -1.09438  -1.09283
 Alpha  occ. eigenvalues --   -1.06774  -1.03513  -1.00296  -0.95603  -0.94470
 Alpha  occ. eigenvalues --   -0.93338  -0.90296  -0.88834  -0.86949  -0.85449
 Alpha  occ. eigenvalues --   -0.84619  -0.84417  -0.83668  -0.82755  -0.82023
 Alpha  occ. eigenvalues --   -0.77876  -0.76737  -0.75892  -0.72328  -0.71808
 Alpha  occ. eigenvalues --   -0.71400  -0.68516  -0.68453  -0.67962  -0.67242
 Alpha  occ. eigenvalues --   -0.66378  -0.64801  -0.64168  -0.63283  -0.61572
 Alpha  occ. eigenvalues --   -0.60431  -0.60147  -0.58574  -0.58256  -0.57193
 Alpha  occ. eigenvalues --   -0.56616  -0.56367  -0.55020  -0.54227  -0.53802
 Alpha  occ. eigenvalues --   -0.53288  -0.52925  -0.52365  -0.52157  -0.51951
 Alpha  occ. eigenvalues --   -0.51463  -0.51057  -0.50773  -0.50305  -0.49909
 Alpha  occ. eigenvalues --   -0.49861  -0.48659  -0.48459  -0.48320  -0.47658
 Alpha  occ. eigenvalues --   -0.47327  -0.47209  -0.47026  -0.46203  -0.46115
 Alpha  occ. eigenvalues --   -0.45752  -0.44936  -0.44661  -0.43627  -0.43237
 Alpha  occ. eigenvalues --   -0.42609  -0.42191  -0.41906  -0.41760  -0.41338
 Alpha  occ. eigenvalues --   -0.41018  -0.40603  -0.40046  -0.39814  -0.39634
 Alpha  occ. eigenvalues --   -0.39504  -0.38735  -0.38311  -0.38065  -0.37955
 Alpha  occ. eigenvalues --   -0.37637  -0.37313  -0.36701  -0.36418  -0.35224
 Alpha  occ. eigenvalues --   -0.34576  -0.33975  -0.33270  -0.29812  -0.29499
 Alpha  occ. eigenvalues --   -0.29240  -0.28586  -0.28098  -0.25710  -0.24603
 Alpha virt. eigenvalues --   -0.01499   0.00311   0.03754   0.04461   0.10205
 Alpha virt. eigenvalues --    0.11113   0.11310   0.11937   0.12566   0.13435
 Alpha virt. eigenvalues --    0.13869   0.14009   0.14941   0.15348   0.15431

 Mulliken charges:
               1
     1  C   -0.306767
     2  C   -0.306684
     3  C   -0.311534
     4  C   -0.065076
     5  C    0.070607
     6  C   -0.307155
     7  H    0.171977
     8  H    0.162241
     9  H    0.164518
    10  H    0.152188
    11  H    0.162417
    12  H    0.209190
    13  H    0.168249
    14  H    0.187667
    15  H    0.160956
    16  H    0.156286
    17  N   -0.431295
    18  C    0.090907
    19  C    0.090901
    20  C   -0.219671
    21  H    0.206797
    22  C   -0.225869
    23  H    0.250459
    24  C    0.433688
    25  H    0.192314
    26  H    0.209095
    27  N   -0.520605
    28  C   -0.160986
    29  H    0.173944
    30  H    0.205696
    31  C   -0.147046
    32  H    0.167203
    33  H    0.200903
    34  N   -0.819993
    35  S    1.244692
    36  O   -0.613390
    37  O   -0.621944
    38  C    0.057834
    39  C   -0.194935
    40  C   -0.190426
    41  C   -0.175864
    42  C   -0.162132
    43  C   -0.206380
    44  H    0.211995
    45  H    0.134886
    46  H    0.152580
    47  H    0.156949
    48  H    0.153913
    49  O   -0.693441
    50  H    0.458339
    51  C    0.677071
    52  O   -0.565367
    53  O   -0.657685
    54  H    0.462348
    55  C   -0.351226
    56  H    0.184752
    57  H    0.155419
    58  C   -0.035227
    59  H    0.095186
    60  H    0.113860
    61  C   -0.671690
    62  H    0.266477
    63  H    0.196448
    64  H    0.215691
    65  C   -0.290984
    66  H    0.141475
    67  H    0.161637
    68  C   -0.478450
    69  H    0.154766
    70  H    0.156902
    71  H    0.148752
    72  C   -0.334727
    73  H    0.184946
    74  H    0.166032
    75  C   -0.336307
    76  H    0.191092
    77  H    0.170612
 Sum of Mulliken charges =  -0.00000

 Dipole moment (field-independent basis, Debye):
    X=             -0.6481    Y=             -2.0682    Z=             -6.1747  Tot=              6.5441
 Quadrupole moment (field-independent basis, Debye-Ang):
   XX=           -201.6610   YY=           -225.6000   ZZ=           -219.8129
   XY=            -11.6699   XZ=             -2.1243   YZ=             10.6016

 Normal termination of Gaussian 16 at Thu Feb  7 19:22:18 2019.
