 Gaussian 16, Revision A.03,
 Gaussian 16:  ES64L-G16RevA.03 25-Dec-2016

 ------------------------------------------
 #p M062X/6-31G* em=gd3 force int=ultrafine
 ------------------------------------------

 -----
 Title
 -----
 Symbolic Z-matrix:
 Charge =  0 Multiplicity = 1

                         Standard orientation:
 ---------------------------------------------------------------------
 Center     Atomic      Atomic             Coordinates (Angstroms)
 Number     Number       Type             X           Y           Z
 ---------------------------------------------------------------------
      1          6           0       -4.792212    0.455226   -0.516102
      2          6           0       -4.998913   -0.845206   -1.298516
      3          6           0       -3.681894   -1.321928   -1.923262
      4          6           0       -2.658211   -1.521739   -0.811707
      5          6           0       -2.408695   -0.198816   -0.042883
      6          6           0       -3.721976    0.300411    0.569296
      7          1           0       -3.819223   -2.253103   -2.483232
      8          1           0       -5.381596   -1.623893   -0.625688
      9          1           0       -5.748436   -0.704530   -2.083592
     10          1           0       -4.483881    1.246334   -1.212238
     11          1           0       -5.736421    0.775015   -0.063446
     12          1           0       -3.032843   -2.269219   -0.105700
     13          1           0       -2.090555    0.545274   -0.784309
     14          1           0       -4.063701   -0.404963    1.334075
     15          1           0       -3.527281    1.263020    1.054211
     16          1           0       -3.336042   -0.553421   -2.627721
     17          7           0       -1.342829   -2.018141   -1.267370
     18          6           0       -0.661000   -1.343982   -2.231922
     19          6           0       -0.643759   -2.809813   -0.410889
     20          6           0        0.693872   -1.401912   -2.338885
     21          1           0       -1.256414   -0.723915   -2.890724
     22          6           0        0.712816   -2.905534   -0.444357
     23          1           0       -1.229986   -3.306425    0.354783
     24          6           0        1.452067   -2.099046   -1.350752
     25          1           0        1.181345   -0.837132   -3.122039
     26          1           0        1.201360   -3.495828    0.317740
     27          7           0        2.774553   -2.001476   -1.281121
     28          6           0        3.512447   -2.463828   -0.095840
     29          1           0        3.390822   -3.542124    0.038695
     30          1           0        3.126149   -1.920550    0.779110
     31          6           0        3.502433   -0.930230   -1.976763
     32          1           0        3.742592   -1.243424   -3.000249
     33          1           0        2.875942   -0.034322   -1.991881
     34          7           0       -1.284010   -0.291229    0.875396
     35         16           0       -1.326444   -1.127427    2.276017
     36          8           0       -2.540697   -1.949064    2.280781
     37          8           0       -0.042046   -1.808613    2.455646
     38          6           0       -0.575108    2.674925   -0.007556
     39          6           0       -0.102961    2.164271   -1.227089
     40          6           0       -0.881261    2.245438   -2.380408
     41          6           0       -2.148245    2.828365   -2.349816
     42          6           0       -2.630232    3.334450   -1.145722
     43          6           0       -1.845883    3.257833    0.005522
     44          1           0        0.852569    1.651346   -1.238490
     45          1           0       -0.487679    1.855246   -3.316909
     46          1           0       -2.748438    2.894005   -3.253162
     47          1           0       -3.613802    3.794088   -1.100776
     48          1           0       -2.230851    3.666154    0.938006
     49          8           0        0.723023    1.543718    1.858962
     50          1           0       -0.309082   -0.051401    0.556095
     51          6           0        1.878220    0.816589    1.235921
     52          8           0        1.492270    0.205293    0.137430
     53          8           0        2.249055   -0.061468    2.282715
     54          1           0        1.555593   -0.745721    2.295596
     55          6           0        3.071328    1.800620    1.131950
     56          1           0        3.003422    2.516637    1.960809
     57          1           0        3.972460    1.207724    1.331647
     58          6           0        0.256536    2.729613    1.278427
     59          1           0       -0.382562    3.192821    2.041759
     60          1           0        1.088048    3.431958    1.116629
     61          6           0       -1.444715    0.097688    3.558418
     62          1           0       -0.566071    0.739000    3.446097
     63          1           0       -2.370635    0.656248    3.410530
     64          1           0       -1.452762   -0.425056    4.516300
     65          6           0        3.253750    2.538046   -0.191747
     66          1           0        3.373419    1.807576   -0.999942
     67          1           0        2.362451    3.117481   -0.452974
     68          6           0        4.462917    3.471272   -0.148968
     69          1           0        4.615392    3.986151   -1.102507
     70          1           0        4.335578    4.234409    0.627771
     71          1           0        5.378572    2.915776    0.086766
     72          6           0        4.948047   -2.061834   -0.413452
     73          1           0        5.558974   -1.985559    0.487736
     74          1           0        5.406571   -2.794973   -1.086334
     75          6           0        4.755146   -0.719051   -1.121406
     76          1           0        4.539436    0.050311   -0.375431
     77          1           0        5.616748   -0.406155   -1.714856
 ---------------------------------------------------------------------

 SCF Done:  E(RM062X) =  -1991.35813167     A.U. after   14 cycles

 The electronic state is 1-A.
 Alpha  occ. eigenvalues --  -90.14267 -19.61863 -19.61831 -19.58615 -19.56673
 Alpha  occ. eigenvalues --  -19.51138 -14.85202 -14.80427 -14.75958 -10.63418
 Alpha  occ. eigenvalues --  -10.62789 -10.62235 -10.62178 -10.60783 -10.59435
 Alpha  occ. eigenvalues --  -10.58364 -10.58003 -10.57970 -10.57183 -10.56890
 Alpha  occ. eigenvalues --  -10.56723 -10.55692 -10.55642 -10.55090 -10.54860
 Alpha  occ. eigenvalues --  -10.54838 -10.54764 -10.54746 -10.54596 -10.54415
 Alpha  occ. eigenvalues --  -10.54373 -10.54338 -10.53052 -10.51447 -10.51399
 Alpha  occ. eigenvalues --  -10.49627  -8.45244  -6.37462  -6.37437  -6.37279
 Alpha  occ. eigenvalues --   -1.22087  -1.13599  -1.13424  -1.10340  -1.09330
 Alpha  occ. eigenvalues --   -1.05830  -1.01847  -0.99272  -0.95781  -0.95001
 Alpha  occ. eigenvalues --   -0.93520  -0.90317  -0.88761  -0.85974  -0.85713
 Alpha  occ. eigenvalues --   -0.84828  -0.84736  -0.84195  -0.83065  -0.82749
 Alpha  occ. eigenvalues --   -0.76682  -0.76217  -0.75825  -0.74321  -0.72851
 Alpha  occ. eigenvalues --   -0.71689  -0.68327  -0.68206  -0.67940  -0.67256
 Alpha  occ. eigenvalues --   -0.66725  -0.65253  -0.64864  -0.63533  -0.60537
 Alpha  occ. eigenvalues --   -0.60403  -0.59764  -0.59143  -0.57800  -0.57626
 Alpha  occ. eigenvalues --   -0.57209  -0.56451  -0.55805  -0.55164  -0.54215
 Alpha  occ. eigenvalues --   -0.53579  -0.52683  -0.52501  -0.52482  -0.51909
 Alpha  occ. eigenvalues --   -0.51560  -0.50994  -0.50660  -0.49897  -0.49510
 Alpha  occ. eigenvalues --   -0.49164  -0.48865  -0.48211  -0.48137  -0.47969
 Alpha  occ. eigenvalues --   -0.47703  -0.47485  -0.46939  -0.46407  -0.46100
 Alpha  occ. eigenvalues --   -0.44902  -0.44739  -0.44176  -0.43850  -0.43270
 Alpha  occ. eigenvalues --   -0.42547  -0.42162  -0.41367  -0.41274  -0.41074
 Alpha  occ. eigenvalues --   -0.40903  -0.40510  -0.39991  -0.39783  -0.39264
 Alpha  occ. eigenvalues --   -0.39243  -0.39087  -0.38427  -0.38017  -0.37629
 Alpha  occ. eigenvalues --   -0.37384  -0.36749  -0.36538  -0.35794  -0.34922
 Alpha  occ. eigenvalues --   -0.34398  -0.34011  -0.31672  -0.31158  -0.29781
 Alpha  occ. eigenvalues --   -0.28867  -0.28607  -0.27675  -0.24720  -0.24322
 Alpha virt. eigenvalues --   -0.01527   0.00387   0.03530   0.03736   0.10126
 Alpha virt. eigenvalues --    0.10936   0.11627   0.12252   0.13153   0.13468
 Alpha virt. eigenvalues --    0.14225   0.14520   0.14753   0.15224   0.15598

 Mulliken charges:
               1
     1  C   -0.306299
     2  C   -0.307229
     3  C   -0.309139
     4  C   -0.060318
     5  C    0.056131
     6  C   -0.311126
     7  H    0.174195
     8  H    0.162951
     9  H    0.165696
    10  H    0.150858
    11  H    0.163643
    12  H    0.209080
    13  H    0.173458
    14  H    0.193633
    15  H    0.163520
    16  H    0.154500
    17  N   -0.430960
    18  C    0.067458
    19  C    0.064462
    20  C   -0.201441
    21  H    0.206198
    22  C   -0.209630
    23  H    0.244779
    24  C    0.445949
    25  H    0.192262
    26  H    0.211423
    27  N   -0.525479
    28  C   -0.170164
    29  H    0.169680
    30  H    0.228121
    31  C   -0.154560
    32  H    0.164825
    33  H    0.206947
    34  N   -0.814015
    35  S    1.252155
    36  O   -0.610877
    37  O   -0.604954
    38  C    0.082380
    39  C   -0.186064
    40  C   -0.190038
    41  C   -0.171624
    42  C   -0.163813
    43  C   -0.211798
    44  H    0.214145
    45  H    0.140414
    46  H    0.154955
    47  H    0.158595
    48  H    0.152436
    49  O   -0.552759
    50  H    0.447624
    51  C    0.722863
    52  O   -0.720584
    53  O   -0.717609
    54  H    0.443442
    55  C   -0.338298
    56  H    0.148355
    57  H    0.151219
    58  C   -0.089861
    59  H    0.139124
    60  H    0.147987
    61  C   -0.663473
    62  H    0.274902
    63  H    0.196476
    64  H    0.217800
    65  C   -0.291388
    66  H    0.134161
    67  H    0.146059
    68  C   -0.473164
    69  H    0.148748
    70  H    0.153706
    71  H    0.145684
    72  C   -0.332039
    73  H    0.186819
    74  H    0.162755
    75  C   -0.342840
    76  H    0.198142
    77  H    0.170828
 Sum of Mulliken charges =  -0.00000

 Dipole moment (field-independent basis, Debye):
    X=             -2.6924    Y=             -2.0080    Z=             -6.2975  Tot=              7.1372
 Quadrupole moment (field-independent basis, Debye-Ang):
   XX=           -206.0614   YY=           -222.4127   ZZ=           -220.0914
   XY=            -12.5449   XZ=             -5.1353   YZ=             10.1011

 Normal termination of Gaussian 16 at Thu Feb  7 13:58:40 2019.
