 Gaussian 16, Revision A.03,
 Gaussian 16:  ES64L-G16RevA.03 25-Dec-2016

 ------------------------------------------
 #p M062X/6-31G* em=gd3 force int=ultrafine
 ------------------------------------------

 -----
 Title
 -----
 Symbolic Z-matrix:
 Charge =  0 Multiplicity = 1

                         Standard orientation:
 ---------------------------------------------------------------------
 Center     Atomic      Atomic             Coordinates (Angstroms)
 Number     Number       Type             X           Y           Z
 ---------------------------------------------------------------------
      1          6           0       -4.869667    0.086618   -0.429553
      2          6           0       -4.915916   -1.201112   -1.257653
      3          6           0       -3.536869   -1.521086   -1.847023
      4          6           0       -2.530842   -1.642589   -0.707042
      5          6           0       -2.428870   -0.315969    0.098783
      6          6           0       -3.814670    0.006740    0.678056
      7          1           0       -3.562156   -2.445103   -2.436084
      8          1           0       -5.238880   -2.036140   -0.622145
      9          1           0       -5.648775   -1.112769   -2.066442
     10          1           0       -4.622626    0.927608   -1.092783
     11          1           0       -5.857009    0.293680   -0.003130
     12          1           0       -2.845627   -2.440020   -0.028555
     13          1           0       -2.214006    0.461595   -0.649378
     14          1           0       -4.087193   -0.761370    1.413037
     15          1           0       -3.741643    0.965786    1.204976
     16          1           0       -3.254759   -0.699595   -2.519988
     17          7           0       -1.166735   -2.013672   -1.149787
     18          6           0       -0.553639   -1.334090   -2.145987
     19          6           0       -0.413088   -2.764917   -0.312669
     20          6           0        0.799883   -1.364641   -2.322728
     21          1           0       -1.196111   -0.740736   -2.783738
     22          6           0        0.945914   -2.840485   -0.422879
     23          1           0       -0.949334   -3.259942    0.489821
     24          6           0        1.620088   -2.057028   -1.389433
     25          1           0        1.232114   -0.804477   -3.141384
     26          1           0        1.481542   -3.414251    0.320353
     27          7           0        2.956503   -1.960588   -1.405817
     28          6           0        3.752466   -2.451284   -0.273832
     29          1           0        3.698679   -3.541851   -0.206001
     30          1           0        3.359735   -2.015111    0.655436
     31          6           0        3.650530   -0.884314   -2.128963
     32          1           0        3.910204   -1.215868   -3.141806
     33          1           0        3.007102   -0.002226   -2.183530
     34          7           0       -1.303465   -0.274832    1.009602
     35         16           0       -1.265433   -1.211139    2.280691
     36          8           0       -2.260535   -2.306566    2.256887
     37          8           0        0.132970   -1.662480    2.519197
     38          6           0       -1.106360    2.859953   -0.170500
     39          6           0       -0.391269    2.184216   -1.165302
     40          6           0       -0.928916    2.060390   -2.444551
     41          6           0       -2.194472    2.569606   -2.737196
     42          6           0       -2.919721    3.218022   -1.739897
     43          6           0       -2.372282    3.363964   -0.467295
     44          1           0        0.561574    1.720014   -0.916801
     45          1           0       -0.357122    1.556214   -3.220446
     46          1           0       -2.613609    2.463184   -3.733399
     47          1           0       -3.911330    3.608528   -1.949389
     48          1           0       -2.939200    3.866089    0.313715
     49          8           0        0.228466    1.916180    1.624155
     50          1           0       -0.283263    1.098658    1.351961
     51          6           0        2.438215    0.651311    1.218816
     52          8           0        2.119138    0.211497    0.127475
     53          8           0        2.210530    0.022689    2.360204
     54          1           0        1.510919   -0.678640    2.246403
     55          6           0        3.193298    1.946020    1.408626
     56          1           0        2.712355    2.475660    2.236169
     57          1           0        4.213467    1.701531    1.737651
     58          6           0       -0.523434    3.022711    1.217906
     59          1           0       -1.340798    3.247065    1.923401
     60          1           0        0.151628    3.890722    1.231444
     61          6           0       -1.638815   -0.179527    3.695617
     62          1           0       -0.934850    0.655927    3.675469
     63          1           0       -2.665305    0.178451    3.595250
     64          1           0       -1.520606   -0.769572    4.605444
     65          6           0        3.214460    2.799425    0.147161
     66          1           0        3.640491    2.220414   -0.681260
     67          1           0        2.180066    3.020799   -0.138764
     68          6           0        3.994309    4.096726    0.337286
     69          1           0        4.009161    4.690229   -0.581444
     70          1           0        3.546137    4.710384    1.125764
     71          1           0        5.032320    3.895617    0.624139
     72          6           0        5.159235   -1.944382   -0.579422
     73          1           0        5.760083   -1.842239    0.326462
     74          1           0        5.670869   -2.635882   -1.256680
     75          6           0        4.891853   -0.607977   -1.276041
     76          1           0        4.640310    0.152290   -0.531040
     77          1           0        5.735184   -0.251155   -1.870798
 ---------------------------------------------------------------------

 SCF Done:  E(RM062X) =  -1991.38897229     A.U. after   15 cycles

 The electronic state is 1-A.
 Alpha  occ. eigenvalues --  -90.10352 -19.63376 -19.60089 -19.59235 -19.58565
 Alpha  occ. eigenvalues --  -19.58344 -14.84801 -14.80501 -14.69381 -10.65474
 Alpha  occ. eigenvalues --  -10.63228 -10.62402 -10.61505 -10.59136 -10.59062
 Alpha  occ. eigenvalues --  -10.59051 -10.57822 -10.57421 -10.56818 -10.56654
 Alpha  occ. eigenvalues --  -10.56036 -10.55748 -10.55521 -10.54975 -10.54919
 Alpha  occ. eigenvalues --  -10.54867 -10.54591 -10.54551 -10.54498 -10.53781
 Alpha  occ. eigenvalues --  -10.53696 -10.53561 -10.53176 -10.53086 -10.52621
 Alpha  occ. eigenvalues --  -10.52609  -8.41316  -6.33554  -6.33461  -6.33381
 Alpha  occ. eigenvalues --   -1.19124  -1.17875  -1.12936  -1.10283  -1.09853
 Alpha  occ. eigenvalues --   -1.09138  -1.06141  -0.97535  -0.95265  -0.94796
 Alpha  occ. eigenvalues --   -0.92184  -0.89850  -0.88580  -0.88080  -0.85020
 Alpha  occ. eigenvalues --   -0.84943  -0.83651  -0.83505  -0.83301  -0.80180
 Alpha  occ. eigenvalues --   -0.79156  -0.76348  -0.75653  -0.74682  -0.70938
 Alpha  occ. eigenvalues --   -0.70193  -0.69101  -0.68714  -0.68357  -0.68013
 Alpha  occ. eigenvalues --   -0.65814  -0.64726  -0.63939  -0.63427  -0.61619
 Alpha  occ. eigenvalues --   -0.60265  -0.59389  -0.58990  -0.58353  -0.56166
 Alpha  occ. eigenvalues --   -0.55451  -0.55166  -0.55065  -0.54099  -0.53691
 Alpha  occ. eigenvalues --   -0.53441  -0.53072  -0.52417  -0.51958  -0.51715
 Alpha  occ. eigenvalues --   -0.51133  -0.50988  -0.50610  -0.50149  -0.49829
 Alpha  occ. eigenvalues --   -0.49595  -0.49497  -0.48826  -0.48346  -0.47995
 Alpha  occ. eigenvalues --   -0.47787  -0.47172  -0.46980  -0.46968  -0.45927
 Alpha  occ. eigenvalues --   -0.45804  -0.45239  -0.43949  -0.43650  -0.43423
 Alpha  occ. eigenvalues --   -0.42768  -0.42495  -0.42234  -0.41946  -0.41893
 Alpha  occ. eigenvalues --   -0.41157  -0.40858  -0.40561  -0.39909  -0.39533
 Alpha  occ. eigenvalues --   -0.39363  -0.39212  -0.38790  -0.38382  -0.37877
 Alpha  occ. eigenvalues --   -0.37318  -0.36223  -0.35862  -0.35352  -0.35118
 Alpha  occ. eigenvalues --   -0.34383  -0.33107  -0.32071  -0.31710  -0.31499
 Alpha  occ. eigenvalues --   -0.29858  -0.28885  -0.28317  -0.27458  -0.25399
 Alpha virt. eigenvalues --   -0.01024   0.00652   0.03284   0.03787   0.09071
 Alpha virt. eigenvalues --    0.10155   0.10911   0.11803   0.12987   0.13499
 Alpha virt. eigenvalues --    0.13865   0.14254   0.15086   0.15490   0.15770

 Mulliken charges:
               1
     1  C   -0.303917
     2  C   -0.304182
     3  C   -0.309665
     4  C   -0.073323
     5  C    0.062655
     6  C   -0.305110
     7  H    0.166031
     8  H    0.160937
     9  H    0.159130
    10  H    0.146221
    11  H    0.156686
    12  H    0.212761
    13  H    0.141463
    14  H    0.179395
    15  H    0.149486
    16  H    0.150593
    17  N   -0.424332
    18  C    0.099906
    19  C    0.083909
    20  C   -0.227760
    21  H    0.205006
    22  C   -0.226888
    23  H    0.264222
    24  C    0.428196
    25  H    0.188154
    26  H    0.207048
    27  N   -0.528766
    28  C   -0.157735
    29  H    0.178373
    30  H    0.199260
    31  C   -0.146978
    32  H    0.169558
    33  H    0.195722
    34  N   -0.755673
    35  S    1.249505
    36  O   -0.646674
    37  O   -0.670401
    38  C    0.048661
    39  C   -0.177016
    40  C   -0.187151
    41  C   -0.169867
    42  C   -0.161996
    43  C   -0.198060
    44  H    0.203599
    45  H    0.139215
    46  H    0.156415
    47  H    0.161861
    48  H    0.156922
    49  O   -0.712605
    50  H    0.481730
    51  C    0.648365
    52  O   -0.522956
    53  O   -0.645511
    54  H    0.485689
    55  C   -0.368090
    56  H    0.200897
    57  H    0.164168
    58  C   -0.066689
    59  H    0.128214
    60  H    0.156977
    61  C   -0.656987
    62  H    0.219839
    63  H    0.187911
    64  H    0.207777
    65  C   -0.287289
    66  H    0.143778
    67  H    0.165516
    68  C   -0.480356
    69  H    0.158556
    70  H    0.158488
    71  H    0.150395
    72  C   -0.337282
    73  H    0.184182
    74  H    0.170020
    75  C   -0.335768
    76  H    0.182411
    77  H    0.173224
 Sum of Mulliken charges =  -0.00000

 Dipole moment (field-independent basis, Debye):
    X=              1.5464    Y=             -0.3759    Z=             -6.5352  Tot=              6.7262
 Quadrupole moment (field-independent basis, Debye-Ang):
   XX=           -198.2643   YY=           -223.0328   ZZ=           -221.9810
   XY=            -11.9573   XZ=             -1.0561   YZ=             12.4231

 Normal termination of Gaussian 16 at Fri Feb  8 00:17:14 2019.
