 Gaussian 16, Revision A.03,
 Gaussian 16:  ES64L-G16RevA.03 25-Dec-2016

 ------------------------------------------
 #p M062X/6-31G* em=gd3 force int=ultrafine
 ------------------------------------------

 -----
 Title
 -----
 Symbolic Z-matrix:
 Charge =  0 Multiplicity = 1

                         Standard orientation:
 ---------------------------------------------------------------------
 Center     Atomic      Atomic             Coordinates (Angstroms)
 Number     Number       Type             X           Y           Z
 ---------------------------------------------------------------------
      1          6           0       -4.850804    0.478366   -0.541528
      2          6           0       -5.035860   -0.836349   -1.305361
      3          6           0       -3.704678   -1.316785   -1.895446
      4          6           0       -2.696887   -1.492541   -0.764509
      5          6           0       -2.475741   -0.155975   -0.014436
      6          6           0       -3.801748    0.344927    0.567071
      7          1           0       -3.825622   -2.257283   -2.443375
      8          1           0       -5.429378   -1.604908   -0.627199
      9          1           0       -5.769343   -0.712891   -2.108300
     10          1           0       -4.530863    1.259623   -1.244187
     11          1           0       -5.805410    0.801517   -0.113876
     12          1           0       -3.075802   -2.233490   -0.053301
     13          1           0       -2.150248    0.578527   -0.762215
     14          1           0       -4.153447   -0.349799    1.336932
     15          1           0       -3.619824    1.315683    1.041182
     16          1           0       -3.349951   -0.557266   -2.605099
     17          7           0       -1.373754   -1.987017   -1.198585
     18          6           0       -0.692559   -1.346173   -2.186222
     19          6           0       -0.676884   -2.769062   -0.331867
     20          6           0        0.659184   -1.433483   -2.311891
     21          1           0       -1.284922   -0.730635   -2.851408
     22          6           0        0.676688   -2.892143   -0.383537
     23          1           0       -1.260933   -3.239608    0.451521
     24          6           0        1.420197   -2.129937   -1.325555
     25          1           0        1.145329   -0.895502   -3.114687
     26          1           0        1.164524   -3.475729    0.384149
     27          7           0        2.746026   -2.075980   -1.287619
     28          6           0        3.487374   -2.548065   -0.107660
     29          1           0        3.350059   -3.624338    0.029662
     30          1           0        3.116983   -1.995565    0.767992
     31          6           0        3.499095   -1.036508   -2.007641
     32          1           0        3.749545   -1.387364   -3.016607
     33          1           0        2.892887   -0.128476   -2.054882
     34          7           0       -1.366311   -0.215045    0.924856
     35         16           0       -1.377725   -1.042649    2.336355
     36          8           0       -2.614050   -1.827613    2.374924
     37          8           0       -0.106378   -1.752650    2.482280
     38          6           0       -0.528628    2.642628   -0.091355
     39          6           0       -0.055009    2.068835   -1.280878
     40          6           0       -0.815036    2.131533   -2.448394
     41          6           0       -2.061194    2.757619   -2.459771
     42          6           0       -2.542493    3.328170   -1.283605
     43          6           0       -1.778917    3.269006   -0.117762
     44          1           0        0.886219    1.526487   -1.249779
     45          1           0       -0.422710    1.691749   -3.363460
     46          1           0       -2.645902    2.808096   -3.374203
     47          1           0       -3.509519    3.823540   -1.273232
     48          1           0       -2.163610    3.723323    0.793296
     49          8           0        0.742355    1.483182    1.759763
     50          1           0       -0.415479    0.058358    0.621626
     51          6           0        1.972591    0.793185    1.191083
     52          8           0        1.673585    0.188565    0.073495
     53          8           0        2.292630   -0.081648    2.258188
     54          1           0        1.587368   -0.753407    2.247473
     55          6           0        3.129753    1.820793    1.167088
     56          1           0        2.992211    2.531973    1.992106
     57          1           0        4.042913    1.261833    1.408341
     58          6           0        0.280600    2.683852    1.208438
     59          1           0       -0.375436    3.127170    1.970565
     60          1           0        1.109949    3.394745    1.075516
     61          6           0       -1.417413    0.199816    3.606370
     62          1           0       -0.526844    0.815890    3.450860
     63          1           0       -2.335978    0.777663    3.492419
     64          1           0       -1.394632   -0.313029    4.569511
     65          6           0        3.342779    2.563459   -0.149783
     66          1           0        3.571697    1.837767   -0.939287
     67          1           0        2.424734    3.065059   -0.475715
     68          6           0        4.466689    3.592641   -0.037787
     69          1           0        4.646263    4.107768   -0.986550
     70          1           0        4.223058    4.351716    0.714180
     71          1           0        5.404235    3.117231    0.272104
     72          6           0        4.926332   -2.164532   -0.431521
     73          1           0        5.540362   -2.093330    0.467996
     74          1           0        5.375595   -2.903194   -1.104905
     75          6           0        4.740502   -0.821478   -1.138925
     76          1           0        4.502944   -0.057351   -0.393517
     77          1           0        5.608137   -0.503333   -1.720798
 ---------------------------------------------------------------------

 SCF Done:  E(RM062X) =  -1991.35669869     A.U. after   15 cycles

 The electronic state is 1-A.
 Alpha  occ. eigenvalues --  -90.14671 -19.62246 -19.62129 -19.58455 -19.56651
 Alpha  occ. eigenvalues --  -19.50617 -14.85294 -14.80253 -14.76690 -10.63321
 Alpha  occ. eigenvalues --  -10.62752 -10.62246 -10.61968 -10.61021 -10.59762
 Alpha  occ. eigenvalues --  -10.58072 -10.57917 -10.57796 -10.57142 -10.56886
 Alpha  occ. eigenvalues --  -10.56871 -10.55993 -10.55843 -10.55036 -10.54932
 Alpha  occ. eigenvalues --  -10.54868 -10.54835 -10.54680 -10.54606 -10.54462
 Alpha  occ. eigenvalues --  -10.54414 -10.54371 -10.52953 -10.51188 -10.51125
 Alpha  occ. eigenvalues --  -10.49439  -8.45644  -6.37868  -6.37831  -6.37679
 Alpha  occ. eigenvalues --   -1.22459  -1.13621  -1.13079  -1.10705  -1.09137
 Alpha  occ. eigenvalues --   -1.05701  -1.02340  -0.99198  -0.95884  -0.95039
 Alpha  occ. eigenvalues --   -0.93565  -0.90290  -0.88712  -0.86329  -0.85410
 Alpha  occ. eigenvalues --   -0.84875  -0.84801  -0.83960  -0.83106  -0.83002
 Alpha  occ. eigenvalues --   -0.76686  -0.75970  -0.75725  -0.74208  -0.73145
 Alpha  occ. eigenvalues --   -0.71797  -0.68259  -0.68143  -0.67864  -0.67470
 Alpha  occ. eigenvalues --   -0.66553  -0.65423  -0.64799  -0.63493  -0.60498
 Alpha  occ. eigenvalues --   -0.60328  -0.59706  -0.59586  -0.57780  -0.57693
 Alpha  occ. eigenvalues --   -0.57294  -0.56492  -0.55823  -0.55132  -0.54297
 Alpha  occ. eigenvalues --   -0.53615  -0.52939  -0.52648  -0.52465  -0.51993
 Alpha  occ. eigenvalues --   -0.51637  -0.50879  -0.50366  -0.49932  -0.49367
 Alpha  occ. eigenvalues --   -0.49134  -0.48990  -0.48286  -0.48121  -0.47868
 Alpha  occ. eigenvalues --   -0.47765  -0.47576  -0.47110  -0.46232  -0.45962
 Alpha  occ. eigenvalues --   -0.45088  -0.44807  -0.44293  -0.43813  -0.43274
 Alpha  occ. eigenvalues --   -0.42589  -0.42211  -0.41165  -0.41107  -0.40942
 Alpha  occ. eigenvalues --   -0.40746  -0.40539  -0.39961  -0.39818  -0.39298
 Alpha  occ. eigenvalues --   -0.39201  -0.39044  -0.38412  -0.38265  -0.37830
 Alpha  occ. eigenvalues --   -0.37285  -0.36597  -0.36416  -0.36024  -0.34965
 Alpha  occ. eigenvalues --   -0.34441  -0.34162  -0.31857  -0.31232  -0.29833
 Alpha  occ. eigenvalues --   -0.28912  -0.28629  -0.27742  -0.24149  -0.23974
 Alpha virt. eigenvalues --   -0.01406   0.00409   0.03425   0.03698   0.10123
 Alpha virt. eigenvalues --    0.10684   0.11422   0.12440   0.13175   0.13274
 Alpha virt. eigenvalues --    0.14142   0.14361   0.14761   0.15370   0.15571

 Mulliken charges:
               1
     1  C   -0.306416
     2  C   -0.307607
     3  C   -0.310187
     4  C   -0.058751
     5  C    0.056396
     6  C   -0.309388
     7  H    0.175140
     8  H    0.163099
     9  H    0.166618
    10  H    0.150957
    11  H    0.164850
    12  H    0.207172
    13  H    0.175578
    14  H    0.194851
    15  H    0.163453
    16  H    0.155883
    17  N   -0.435527
    18  C    0.071998
    19  C    0.068701
    20  C   -0.204348
    21  H    0.205013
    22  C   -0.212982
    23  H    0.243460
    24  C    0.448561
    25  H    0.192523
    26  H    0.210815
    27  N   -0.521953
    28  C   -0.168456
    29  H    0.168065
    30  H    0.225416
    31  C   -0.150088
    32  H    0.162329
    33  H    0.206104
    34  N   -0.801359
    35  S    1.246675
    36  O   -0.605188
    37  O   -0.597204
    38  C    0.067839
    39  C   -0.193554
    40  C   -0.191268
    41  C   -0.172656
    42  C   -0.164940
    43  C   -0.208613
    44  H    0.224589
    45  H    0.140407
    46  H    0.155146
    47  H    0.158648
    48  H    0.152442
    49  O   -0.567905
    50  H    0.439816
    51  C    0.719155
    52  O   -0.713557
    53  O   -0.712290
    54  H    0.436122
    55  C   -0.338876
    56  H    0.145469
    57  H    0.149944
    58  C   -0.084338
    59  H    0.135051
    60  H    0.150725
    61  C   -0.664575
    62  H    0.275950
    63  H    0.198644
    64  H    0.220115
    65  C   -0.287498
    66  H    0.136285
    67  H    0.143068
    68  C   -0.473954
    69  H    0.147993
    70  H    0.151395
    71  H    0.147413
    72  C   -0.333269
    73  H    0.185975
    74  H    0.161140
    75  C   -0.340684
    76  H    0.202171
    77  H    0.168273
 Sum of Mulliken charges =  -0.00000

 Dipole moment (field-independent basis, Debye):
    X=             -3.3047    Y=             -2.1305    Z=             -5.9725  Tot=              7.1506
 Quadrupole moment (field-independent basis, Debye-Ang):
   XX=           -207.5189   YY=           -221.6739   ZZ=           -219.6284
   XY=            -12.9657   XZ=             -4.4768   YZ=             10.3848

 Normal termination of Gaussian 16 at Thu Feb  7 11:59:46 2019.
