 Gaussian 16, Revision A.03,
 Gaussian 16:  ES64L-G16RevA.03 25-Dec-2016

 ------------------------------------------
 #p M062X/6-31G* em=gd3 force int=ultrafine
 ------------------------------------------

 -----
 Title
 -----
 Symbolic Z-matrix:
 Charge =  0 Multiplicity = 1

                         Standard orientation:
 ---------------------------------------------------------------------
 Center     Atomic      Atomic             Coordinates (Angstroms)
 Number     Number       Type             X           Y           Z
 ---------------------------------------------------------------------
      1          6           0       -4.849521    0.371355   -0.497979
      2          6           0       -4.980893   -0.899770   -1.342540
      3          6           0       -3.625966   -1.305648   -1.935958
      4          6           0       -2.636898   -1.522632   -0.797973
      5          6           0       -2.462070   -0.237299    0.052714
      6          6           0       -3.819798    0.195227    0.621203
      7          1           0       -3.712178   -2.210392   -2.547762
      8          1           0       -5.360024   -1.718039   -0.716518
      9          1           0       -5.704122   -0.752077   -2.150909
     10          1           0       -4.532169    1.199551   -1.147515
     11          1           0       -5.823161    0.647367   -0.079499
     12          1           0       -2.995117   -2.322113   -0.141804
     13          1           0       -2.160008    0.546254   -0.659935
     14          1           0       -4.162684   -0.549176    1.349381
     15          1           0       -3.669579    1.142548    1.153727
     16          1           0       -3.282935   -0.489209   -2.586471
     17          7           0       -1.285493   -1.943940   -1.242402
     18          6           0       -0.629280   -1.256612   -2.207089
     19          6           0       -0.566510   -2.731028   -0.406481
     20          6           0        0.726349   -1.320464   -2.357031
     21          1           0       -1.237889   -0.624271   -2.840429
     22          6           0        0.792418   -2.843363   -0.491485
     23          1           0       -1.130487   -3.236571    0.369850
     24          6           0        1.509749   -2.057876   -1.425626
     25          1           0        1.190558   -0.746528   -3.148464
     26          1           0        1.294962   -3.447400    0.250882
     27          7           0        2.848934   -1.996320   -1.412739
     28          6           0        3.603482   -2.504108   -0.258353
     29          1           0        3.506850   -3.590020   -0.177129
     30          1           0        3.212662   -2.038487    0.657366
     31          6           0        3.584480   -0.919634   -2.097815
     32          1           0        3.855270   -1.234759   -3.112404
     33          1           0        2.966294   -0.019350   -2.143639
     34          7           0       -1.356265   -0.345426    0.967616
     35         16           0       -1.386268   -1.230924    2.280040
     36          8           0       -2.514747   -2.183810    2.313026
     37          8           0       -0.035825   -1.820915    2.475592
     38          6           0       -0.765466    2.779399   -0.068721
     39          6           0       -0.177994    2.136760   -1.166422
     40          6           0       -0.819683    2.155572   -2.402985
     41          6           0       -2.062544    2.774108   -2.549605
     42          6           0       -2.657544    3.391208   -1.452078
     43          6           0       -2.003777    3.395436   -0.223500
     44          1           0        0.754271    1.589869   -1.033790
     45          1           0       -0.352235    1.676592   -3.261197
     46          1           0       -2.566426    2.774380   -3.511236
     47          1           0       -3.630034    3.864382   -1.544373
     48          1           0       -2.460862    3.866036    0.643481
     49          8           0        0.284947    1.481722    1.671706
     50          1           0       -0.356443    0.782825    1.262102
     51          6           0        2.403811    0.566305    1.170176
     52          8           0        2.091993    0.156008    0.067583
     53          8           0        2.264405   -0.147261    2.285650
     54          1           0        1.531448   -0.805252    2.176851
     55          6           0        3.130478    1.873428    1.393593
     56          1           0        2.613200    2.418247    2.191241
     57          1           0        4.120865    1.616667    1.791775
     58          6           0       -0.117133    2.754892    1.296489
     59          1           0       -0.815555    3.184232    2.032265
     60          1           0        0.778640    3.393402    1.300507
     61          6           0       -1.549166   -0.087216    3.651777
     62          1           0       -0.734779    0.632078    3.535327
     63          1           0       -2.516516    0.413785    3.582093
     64          1           0       -1.456664   -0.634123    4.590866
     65          6           0        3.277860    2.725466    0.133993
     66          1           0        3.663596    2.101864   -0.680748
     67          1           0        2.296610    3.078176   -0.205168
     68          6           0        4.204207    3.918139    0.363092
     69          1           0        4.351995    4.494406   -0.554865
     70          1           0        3.798580    4.596097    1.121667
     71          1           0        5.187423    3.583738    0.711449
     72          6           0        5.031618   -2.050277   -0.543022
     73          1           0        5.630286   -1.988657    0.367957
     74          1           0        5.517970   -2.748122   -1.232278
     75          6           0        4.816606   -0.693279   -1.216091
     76          1           0        4.571381    0.055193   -0.457461
     77          1           0        5.680003   -0.343067   -1.785302
 ---------------------------------------------------------------------

 SCF Done:  E(RM062X) =  -1991.37637047     A.U. after   15 cycles

 The electronic state is 1-A.
 Alpha  occ. eigenvalues --  -90.10308 -19.63626 -19.60098 -19.58364 -19.58280
 Alpha  occ. eigenvalues --  -19.57938 -14.84807 -14.80398 -14.69302 -10.65980
 Alpha  occ. eigenvalues --  -10.63220 -10.62456 -10.61709 -10.59288 -10.59026
 Alpha  occ. eigenvalues --  -10.58835 -10.57830 -10.57059 -10.56780 -10.56761
 Alpha  occ. eigenvalues --  -10.55899 -10.55665 -10.55643 -10.55108 -10.55035
 Alpha  occ. eigenvalues --  -10.54939 -10.54634 -10.54553 -10.54465 -10.53964
 Alpha  occ. eigenvalues --  -10.53715 -10.53649 -10.53631 -10.53229 -10.53012
 Alpha  occ. eigenvalues --  -10.52644  -8.41253  -6.33489  -6.33401  -6.33323
 Alpha  occ. eigenvalues --   -1.19251  -1.17748  -1.12942  -1.10075  -1.09622
 Alpha  occ. eigenvalues --   -1.09033  -1.06064  -0.97743  -0.95381  -0.94780
 Alpha  occ. eigenvalues --   -0.92262  -0.89828  -0.88585  -0.88474  -0.85048
 Alpha  occ. eigenvalues --   -0.84778  -0.83782  -0.83585  -0.83314  -0.79999
 Alpha  occ. eigenvalues --   -0.79515  -0.76312  -0.75608  -0.74473  -0.71003
 Alpha  occ. eigenvalues --   -0.70402  -0.69451  -0.68646  -0.68352  -0.68120
 Alpha  occ. eigenvalues --   -0.66007  -0.64809  -0.63923  -0.63539  -0.61671
 Alpha  occ. eigenvalues --   -0.60319  -0.59426  -0.59115  -0.58354  -0.56227
 Alpha  occ. eigenvalues --   -0.55887  -0.55323  -0.55223  -0.54691  -0.53926
 Alpha  occ. eigenvalues --   -0.53510  -0.53062  -0.52644  -0.51824  -0.51608
 Alpha  occ. eigenvalues --   -0.51096  -0.50945  -0.50655  -0.49960  -0.49876
 Alpha  occ. eigenvalues --   -0.49799  -0.49520  -0.48760  -0.48318  -0.48057
 Alpha  occ. eigenvalues --   -0.47509  -0.47278  -0.47102  -0.46985  -0.45804
 Alpha  occ. eigenvalues --   -0.45480  -0.45163  -0.44046  -0.43817  -0.43512
 Alpha  occ. eigenvalues --   -0.43233  -0.42840  -0.42121  -0.41818  -0.41746
 Alpha  occ. eigenvalues --   -0.41276  -0.40918  -0.40504  -0.39893  -0.39731
 Alpha  occ. eigenvalues --   -0.39464  -0.39403  -0.39221  -0.38432  -0.38120
 Alpha  occ. eigenvalues --   -0.37491  -0.36330  -0.35820  -0.35388  -0.35049
 Alpha  occ. eigenvalues --   -0.34156  -0.32930  -0.31919  -0.31727  -0.30791
 Alpha  occ. eigenvalues --   -0.30005  -0.28544  -0.28327  -0.27214  -0.25447
 Alpha virt. eigenvalues --   -0.01098   0.00695   0.03103   0.03687   0.08938
 Alpha virt. eigenvalues --    0.10131   0.10952   0.11747   0.12974   0.13446
 Alpha virt. eigenvalues --    0.13739   0.14339   0.15059   0.15397   0.15861

 Mulliken charges:
               1
     1  C   -0.303729
     2  C   -0.304929
     3  C   -0.309375
     4  C   -0.068676
     5  C    0.072306
     6  C   -0.305092
     7  H    0.167359
     8  H    0.162004
     9  H    0.159546
    10  H    0.144358
    11  H    0.157639
    12  H    0.207496
    13  H    0.140987
    14  H    0.184794
    15  H    0.149861
    16  H    0.149812
    17  N   -0.425007
    18  C    0.096395
    19  C    0.098480
    20  C   -0.226508
    21  H    0.204376
    22  C   -0.228587
    23  H    0.255764
    24  C    0.425900
    25  H    0.187487
    26  H    0.207961
    27  N   -0.524909
    28  C   -0.159345
    29  H    0.177797
    30  H    0.197983
    31  C   -0.145028
    32  H    0.169342
    33  H    0.193695
    34  N   -0.785548
    35  S    1.243656
    36  O   -0.631865
    37  O   -0.664249
    38  C    0.052674
    39  C   -0.178792
    40  C   -0.188749
    41  C   -0.170049
    42  C   -0.160439
    43  C   -0.199440
    44  H    0.204281
    45  H    0.140022
    46  H    0.157270
    47  H    0.162495
    48  H    0.159224
    49  O   -0.718705
    50  H    0.488677
    51  C    0.676495
    52  O   -0.522607
    53  O   -0.646703
    54  H    0.479017
    55  C   -0.376587
    56  H    0.198608
    57  H    0.169285
    58  C   -0.060855
    59  H    0.123130
    60  H    0.136692
    61  C   -0.668461
    62  H    0.237565
    63  H    0.183923
    64  H    0.205094
    65  C   -0.292874
    66  H    0.148350
    67  H    0.163488
    68  C   -0.480642
    69  H    0.160465
    70  H    0.159245
    71  H    0.152499
    72  C   -0.334922
    73  H    0.183858
    74  H    0.169172
    75  C   -0.335133
    76  H    0.178837
    77  H    0.172438
 Sum of Mulliken charges =  -0.00000

 Dipole moment (field-independent basis, Debye):
    X=              1.7980    Y=              0.3339    Z=             -6.7730  Tot=              7.0156
 Quadrupole moment (field-independent basis, Debye-Ang):
   XX=           -201.0988   YY=           -222.8421   ZZ=           -222.8493
   XY=            -11.6290   XZ=              1.7316   YZ=             13.4846

 Normal termination of Gaussian 16 at Thu Feb  7 20:43:46 2019.
