 Gaussian 16, Revision A.03,
 Gaussian 16:  ES64L-G16RevA.03 25-Dec-2016

 ------------------------------------------
 #p M062X/6-31G* em=gd3 force int=ultrafine
 ------------------------------------------

 -----
 Title
 -----
 Symbolic Z-matrix:
 Charge =  0 Multiplicity = 1

                         Standard orientation:
 ---------------------------------------------------------------------
 Center     Atomic      Atomic             Coordinates (Angstroms)
 Number     Number       Type             X           Y           Z
 ---------------------------------------------------------------------
      1          6           0       -4.867529    0.225572   -0.458696
      2          6           0       -4.967058   -1.064293   -1.278513
      3          6           0       -3.601695   -1.445238   -1.864110
      4          6           0       -2.598687   -1.600051   -0.724955
      5          6           0       -2.451464   -0.277827    0.081388
      6          6           0       -3.823700    0.104079    0.655885
      7          1           0       -3.665076   -2.369479   -2.449840
      8          1           0       -5.326867   -1.880419   -0.638404
      9          1           0       -5.693745   -0.950011   -2.089740
     10          1           0       -4.577136    1.049377   -1.126087
     11          1           0       -5.846996    0.481997   -0.041119
     12          1           0       -2.935148   -2.389439   -0.046244
     13          1           0       -2.205139    0.489758   -0.668076
     14          1           0       -4.132875   -0.647105    1.393513
     15          1           0       -3.710787    1.061848    1.177778
     16          1           0       -3.287332   -0.639017   -2.541097
     17          7           0       -1.243925   -2.005885   -1.168993
     18          6           0       -0.613249   -1.337949   -2.162982
     19          6           0       -0.503474   -2.757059   -0.319737
     20          6           0        0.741332   -1.384136   -2.328202
     21          1           0       -1.242186   -0.738666   -2.808576
     22          6           0        0.855617   -2.849302   -0.418907
     23          1           0       -1.050250   -3.240150    0.483042
     24          6           0        1.547408   -2.081614   -1.385839
     25          1           0        1.185747   -0.829041   -3.143857
     26          1           0        1.377486   -3.420183    0.336169
     27          7           0        2.885651   -2.002057   -1.392762
     28          6           0        3.663208   -2.484720   -0.243756
     29          1           0        3.594509   -3.573006   -0.158651
     30          1           0        3.267261   -2.028216    0.674206
     31          6           0        3.599042   -0.937568   -2.116331
     32          1           0        3.863675   -1.278205   -3.124595
     33          1           0        2.967234   -0.047913   -2.182423
     34          7           0       -1.323493   -0.281171    0.985633
     35         16           0       -1.302237   -1.185270    2.282016
     36          8           0       -2.347977   -2.231547    2.301310
     37          8           0        0.082343   -1.685920    2.500169
     38          6           0       -0.925067    2.833676   -0.134153
     39          6           0       -0.287749    2.150362   -1.177397
     40          6           0       -0.891735    2.080930   -2.431107
     41          6           0       -2.147284    2.650173   -2.649677
     42          6           0       -2.798385    3.297283   -1.602573
     43          6           0       -2.183842    3.388225   -0.356009
     44          1           0        0.657953    1.644109   -0.990314
     45          1           0       -0.380520    1.575552   -3.247757
     46          1           0       -2.616191    2.590019   -3.627345
     47          1           0       -3.782443    3.731608   -1.751147
     48          1           0       -2.689360    3.888621    0.466548
     49          8           0        0.280691    1.756452    1.676498
     50          1           0       -0.293460    1.000413    1.336095
     51          6           0        2.441580    0.605283    1.172699
     52          8           0        2.092468    0.187958    0.083128
     53          8           0        2.272153   -0.065845    2.302967
     54          1           0        1.543769   -0.736401    2.201634
     55          6           0        3.178952    1.910006    1.367078
     56          1           0        2.650468    2.451445    2.158270
     57          1           0        4.181622    1.685235    1.756117
     58          6           0       -0.281034    2.954034    1.230332
     59          1           0       -1.028286    3.342070    1.941460
     60          1           0        0.530768    3.696465    1.190872
     61          6           0       -1.588238   -0.090964    3.671311
     62          1           0       -0.829319    0.692942    3.610278
     63          1           0       -2.588959    0.334935    3.575959
     64          1           0       -1.492462   -0.658046    4.598093
     65          6           0        3.261846    2.738891    0.089838
     66          1           0        3.672939    2.124835   -0.720326
     67          1           0        2.248287    3.008879   -0.228150
     68          6           0        4.105036    3.997861    0.270156
     69          1           0        4.179185    4.564646   -0.662493
     70          1           0        3.672381    4.657278    1.029906
     71          1           0        5.121537    3.745461    0.591179
     72          6           0        5.079555   -2.000451   -0.540675
     73          1           0        5.671856   -1.894864    0.370506
     74          1           0        5.588911   -2.706330   -1.204432
     75          6           0        4.837472   -0.669205   -1.255756
     76          1           0        4.593828    0.103421   -0.521469
     77          1           0        5.690696   -0.331083   -1.847329
 ---------------------------------------------------------------------

 SCF Done:  E(RM062X) =  -1991.38530286     A.U. after   15 cycles

 The electronic state is 1-A.
 Alpha  occ. eigenvalues --  -90.10273 -19.63532 -19.60164 -19.58914 -19.58412
 Alpha  occ. eigenvalues --  -19.58304 -14.84786 -14.80441 -14.69304 -10.65673
 Alpha  occ. eigenvalues --  -10.63208 -10.62419 -10.61546 -10.59178 -10.59093
 Alpha  occ. eigenvalues --  -10.58941 -10.57824 -10.57382 -10.56769 -10.56698
 Alpha  occ. eigenvalues --  -10.55961 -10.55708 -10.55596 -10.55039 -10.54973
 Alpha  occ. eigenvalues --  -10.54908 -10.54634 -10.54596 -10.54510 -10.53911
 Alpha  occ. eigenvalues --  -10.53589 -10.53454 -10.53391 -10.53355 -10.52812
 Alpha  occ. eigenvalues --  -10.52626  -8.41230  -6.33467  -6.33376  -6.33297
 Alpha  occ. eigenvalues --   -1.19258  -1.17759  -1.12922  -1.10147  -1.09967
 Alpha  occ. eigenvalues --   -1.09089  -1.06040  -0.97526  -0.95329  -0.94745
 Alpha  occ. eigenvalues --   -0.92187  -0.89823  -0.88558  -0.88273  -0.85073
 Alpha  occ. eigenvalues --   -0.84868  -0.83687  -0.83526  -0.83291  -0.80074
 Alpha  occ. eigenvalues --   -0.79331  -0.76319  -0.75619  -0.74670  -0.70939
 Alpha  occ. eigenvalues --   -0.70241  -0.69271  -0.68673  -0.68340  -0.68075
 Alpha  occ. eigenvalues --   -0.65944  -0.64750  -0.63918  -0.63479  -0.61601
 Alpha  occ. eigenvalues --   -0.60261  -0.59367  -0.59073  -0.58352  -0.56156
 Alpha  occ. eigenvalues --   -0.55577  -0.55254  -0.55141  -0.54312  -0.53830
 Alpha  occ. eigenvalues --   -0.53451  -0.53052  -0.52577  -0.51893  -0.51661
 Alpha  occ. eigenvalues --   -0.51081  -0.50956  -0.50616  -0.50043  -0.49829
 Alpha  occ. eigenvalues --   -0.49657  -0.49529  -0.48782  -0.48317  -0.48006
 Alpha  occ. eigenvalues --   -0.47793  -0.47210  -0.47061  -0.46978  -0.45851
 Alpha  occ. eigenvalues --   -0.45608  -0.45204  -0.43948  -0.43679  -0.43458
 Alpha  occ. eigenvalues --   -0.42854  -0.42788  -0.42169  -0.42044  -0.41849
 Alpha  occ. eigenvalues --   -0.41191  -0.40915  -0.40523  -0.39882  -0.39609
 Alpha  occ. eigenvalues --   -0.39370  -0.39302  -0.38994  -0.38402  -0.38034
 Alpha  occ. eigenvalues --   -0.37352  -0.36247  -0.35817  -0.35336  -0.35172
 Alpha  occ. eigenvalues --   -0.34291  -0.33017  -0.32000  -0.31656  -0.31391
 Alpha  occ. eigenvalues --   -0.29929  -0.28835  -0.28326  -0.27348  -0.25350
 Alpha virt. eigenvalues --   -0.01050   0.00677   0.03156   0.03724   0.08886
 Alpha virt. eigenvalues --    0.10171   0.10942   0.11803   0.12956   0.13541
 Alpha virt. eigenvalues --    0.13825   0.14309   0.14985   0.15477   0.15851

 Mulliken charges:
               1
     1  C   -0.303954
     2  C   -0.304227
     3  C   -0.309774
     4  C   -0.072369
     5  C    0.066492
     6  C   -0.304815
     7  H    0.166801
     8  H    0.161203
     9  H    0.159216
    10  H    0.145297
    11  H    0.156943
    12  H    0.210534
    13  H    0.140687
    14  H    0.180165
    15  H    0.150284
    16  H    0.149905
    17  N   -0.423969
    18  C    0.097828
    19  C    0.087394
    20  C   -0.226560
    21  H    0.204615
    22  C   -0.226751
    23  H    0.261562
    24  C    0.427057
    25  H    0.187631
    26  H    0.207693
    27  N   -0.527194
    28  C   -0.158781
    29  H    0.178240
    30  H    0.198302
    31  C   -0.146011
    32  H    0.169580
    33  H    0.194274
    34  N   -0.763975
    35  S    1.248031
    36  O   -0.641694
    37  O   -0.669283
    38  C    0.050292
    39  C   -0.176107
    40  C   -0.188420
    41  C   -0.169516
    42  C   -0.160977
    43  C   -0.199494
    44  H    0.204549
    45  H    0.139464
    46  H    0.156910
    47  H    0.162229
    48  H    0.158215
    49  O   -0.716850
    50  H    0.485199
    51  C    0.659126
    52  O   -0.520967
    53  O   -0.646589
    54  H    0.484197
    55  C   -0.372613
    56  H    0.202788
    57  H    0.165983
    58  C   -0.063292
    59  H    0.127016
    60  H    0.147428
    61  C   -0.661937
    62  H    0.227215
    63  H    0.186111
    64  H    0.206287
    65  C   -0.289710
    66  H    0.145988
    67  H    0.162210
    68  C   -0.480415
    69  H    0.159407
    70  H    0.158534
    71  H    0.151742
    72  C   -0.336562
    73  H    0.184428
    74  H    0.169766
    75  C   -0.335741
    76  H    0.180858
    77  H    0.172870
 Sum of Mulliken charges =  -0.00000

 Dipole moment (field-independent basis, Debye):
    X=              1.5797    Y=             -0.1019    Z=             -6.6879  Tot=              6.8727
 Quadrupole moment (field-independent basis, Debye-Ang):
   XX=           -199.5419   YY=           -222.4570   ZZ=           -222.6791
   XY=            -11.6125   XZ=              0.2096   YZ=             12.8100

 Normal termination of Gaussian 16 at Thu Feb  7 22:31:13 2019.
