 Gaussian 16, Revision A.03,
 Gaussian 16:  ES64L-G16RevA.03 25-Dec-2016

 ------------------------------------------
 #p M062X/6-31G* em=gd3 force int=ultrafine
 ------------------------------------------

 -----
 Title
 -----
 Symbolic Z-matrix:
 Charge =  0 Multiplicity = 1

                         Standard orientation:
 ---------------------------------------------------------------------
 Center     Atomic      Atomic             Coordinates (Angstroms)
 Number     Number       Type             X           Y           Z
 ---------------------------------------------------------------------
      1          6           0       -4.864398    0.270576   -0.469630
      2          6           0       -4.976890   -1.015207   -1.294106
      3          6           0       -3.615305   -1.407396   -1.881442
      4          6           0       -2.615406   -1.581380   -0.742320
      5          6           0       -2.457135   -0.267639    0.075045
      6          6           0       -3.825029    0.132190    0.647033
      7          1           0       -3.688481   -2.325953   -2.474841
      8          1           0       -5.344301   -1.829900   -0.656513
      9          1           0       -5.702767   -0.891051   -2.104584
     10          1           0       -4.562874    1.093261   -1.133504
     11          1           0       -5.841707    0.537165   -0.053364
     12          1           0       -2.958970   -2.374334   -0.070923
     13          1           0       -2.196770    0.501544   -0.668212
     14          1           0       -4.146650   -0.614479    1.383662
     15          1           0       -3.698537    1.087944    1.169638
     16          1           0       -3.291344   -0.599243   -2.551622
     17          7           0       -1.261882   -1.992500   -1.186959
     18          6           0       -0.624251   -1.320354   -2.173964
     19          6           0       -0.526535   -2.750114   -0.338829
     20          6           0        0.730820   -1.370686   -2.334550
     21          1           0       -1.247739   -0.713067   -2.817382
     22          6           0        0.832644   -2.847851   -0.434268
     23          1           0       -1.077602   -3.236326    0.459143
     24          6           0        1.531390   -2.078020   -1.394672
     25          1           0        1.180201   -0.810507   -3.144053
     26          1           0        1.349194   -3.425231    0.319528
     27          7           0        2.870299   -2.004541   -1.397446
     28          6           0        3.641773   -2.492670   -0.246261
     29          1           0        3.565942   -3.580338   -0.160988
     30          1           0        3.246997   -2.033120    0.670676
     31          6           0        3.590483   -0.937909   -2.112173
     32          1           0        3.857078   -1.273212   -3.121603
     33          1           0        2.962839   -0.045105   -2.174519
     34          7           0       -1.332536   -0.294685    0.981112
     35         16           0       -1.323061   -1.192236    2.283061
     36          8           0       -2.390704   -2.215347    2.311284
     37          8           0        0.054079   -1.715603    2.493831
     38          6           0       -0.874578    2.816121   -0.116996
     39          6           0       -0.255438    2.142042   -1.177508
     40          6           0       -0.873615    2.098913   -2.425762
     41          6           0       -2.124761    2.685793   -2.622169
     42          6           0       -2.756925    3.324926   -1.558801
     43          6           0       -2.128341    3.389015   -0.317944
     44          1           0        0.687121    1.623487   -1.009414
     45          1           0       -0.377443    1.600802   -3.256200
     46          1           0       -2.605063    2.645509   -3.595296
     47          1           0       -3.736881    3.773745   -1.689605
     48          1           0       -2.618098    3.882146    0.518239
     49          8           0        0.291886    1.688757    1.687571
     50          1           0       -0.297098    0.948903    1.327496
     51          6           0        2.440148    0.589541    1.165875
     52          8           0        2.092700    0.178453    0.074159
     53          8           0        2.279180   -0.096189    2.292144
     54          1           0        1.546717   -0.760219    2.188472
     55          6           0        3.169999    1.897286    1.369056
     56          1           0        2.632056    2.436546    2.155702
     57          1           0        4.168468    1.675356    1.769486
     58          6           0       -0.224505    2.906435    1.246847
     59          1           0       -0.957550    3.315947    1.960373
     60          1           0        0.613201    3.619937    1.212166
     61          6           0       -1.574383   -0.080844    3.666300
     62          1           0       -0.796925    0.683329    3.590516
     63          1           0       -2.564892    0.369491    3.576511
     64          1           0       -1.483122   -0.641384    4.597473
     65          6           0        3.269227    2.729965    0.094343
     66          1           0        3.670495    2.111826   -0.717499
     67          1           0        2.263047    3.022523   -0.227487
     68          6           0        4.137094    3.971155    0.283360
     69          1           0        4.232123    4.537595   -0.647586
     70          1           0        3.712769    4.639105    1.040382
     71          1           0        5.144835    3.695754    0.612894
     72          6           0        5.061559   -2.016757   -0.539612
     73          1           0        5.654859   -1.921170    0.372034
     74          1           0        5.565528   -2.721764   -1.208408
     75          6           0        4.827741   -0.679812   -1.246488
     76          1           0        4.585752    0.088849   -0.507512
     77          1           0        5.683962   -0.340988   -1.833313
 ---------------------------------------------------------------------

 SCF Done:  E(RM062X) =  -1991.38357930     A.U. after   15 cycles

 The electronic state is 1-A.
 Alpha  occ. eigenvalues --  -90.10238 -19.63591 -19.60233 -19.58777 -19.58334
 Alpha  occ. eigenvalues --  -19.58287 -14.84794 -14.80430 -14.69280 -10.65790
 Alpha  occ. eigenvalues --  -10.63214 -10.62432 -10.61589 -10.59227 -10.59081
 Alpha  occ. eigenvalues --  -10.58911 -10.57830 -10.57361 -10.56770 -10.56712
 Alpha  occ. eigenvalues --  -10.55945 -10.55701 -10.55619 -10.55073 -10.55004
 Alpha  occ. eigenvalues --  -10.54926 -10.54648 -10.54607 -10.54513 -10.53962
 Alpha  occ. eigenvalues --  -10.53595 -10.53494 -10.53455 -10.53363 -10.52882
 Alpha  occ. eigenvalues --  -10.52624  -8.41192  -6.33429  -6.33339  -6.33259
 Alpha  occ. eigenvalues --   -1.19272  -1.17704  -1.12925  -1.10123  -1.10020
 Alpha  occ. eigenvalues --   -1.09074  -1.05995  -0.97534  -0.95358  -0.94738
 Alpha  occ. eigenvalues --   -0.92188  -0.89820  -0.88561  -0.88348  -0.85094
 Alpha  occ. eigenvalues --   -0.84841  -0.83705  -0.83540  -0.83281  -0.80027
 Alpha  occ. eigenvalues --   -0.79398  -0.76315  -0.75613  -0.74664  -0.70946
 Alpha  occ. eigenvalues --   -0.70263  -0.69326  -0.68666  -0.68344  -0.68098
 Alpha  occ. eigenvalues --   -0.65985  -0.64758  -0.63914  -0.63495  -0.61601
 Alpha  occ. eigenvalues --   -0.60274  -0.59368  -0.59105  -0.58358  -0.56160
 Alpha  occ. eigenvalues --   -0.55664  -0.55299  -0.55160  -0.54410  -0.53877
 Alpha  occ. eigenvalues --   -0.53462  -0.53052  -0.52620  -0.51855  -0.51644
 Alpha  occ. eigenvalues --   -0.51069  -0.50945  -0.50622  -0.50018  -0.49827
 Alpha  occ. eigenvalues --   -0.49710  -0.49524  -0.48771  -0.48315  -0.48025
 Alpha  occ. eigenvalues --   -0.47763  -0.47237  -0.47081  -0.46989  -0.45817
 Alpha  occ. eigenvalues --   -0.45550  -0.45179  -0.43961  -0.43707  -0.43475
 Alpha  occ. eigenvalues --   -0.42959  -0.42827  -0.42156  -0.42041  -0.41830
 Alpha  occ. eigenvalues --   -0.41213  -0.40927  -0.40519  -0.39889  -0.39641
 Alpha  occ. eigenvalues --   -0.39391  -0.39341  -0.39077  -0.38400  -0.38081
 Alpha  occ. eigenvalues --   -0.37385  -0.36273  -0.35822  -0.35327  -0.35180
 Alpha  occ. eigenvalues --   -0.34252  -0.32983  -0.31978  -0.31683  -0.31298
 Alpha  occ. eigenvalues --   -0.29957  -0.28806  -0.28336  -0.27315  -0.25342
 Alpha virt. eigenvalues --   -0.01067   0.00680   0.03123   0.03695   0.08795
 Alpha virt. eigenvalues --    0.10161   0.10960   0.11788   0.12960   0.13515
 Alpha virt. eigenvalues --    0.13787   0.14313   0.14986   0.15462   0.15864

 Mulliken charges:
               1
     1  C   -0.303918
     2  C   -0.304322
     3  C   -0.309873
     4  C   -0.071683
     5  C    0.068083
     6  C   -0.304763
     7  H    0.167004
     8  H    0.161378
     9  H    0.159271
    10  H    0.144975
    11  H    0.157060
    12  H    0.209469
    13  H    0.140317
    14  H    0.181124
    15  H    0.150227
    16  H    0.149851
    17  N   -0.424151
    18  C    0.097294
    19  C    0.090306
    20  C   -0.226359
    21  H    0.204564
    22  C   -0.227249
    23  H    0.259963
    24  C    0.426542
    25  H    0.187487
    26  H    0.207851
    27  N   -0.526616
    28  C   -0.159139
    29  H    0.178195
    30  H    0.198073
    31  C   -0.145692
    32  H    0.169586
    33  H    0.193921
    34  N   -0.768065
    35  S    1.246543
    36  O   -0.639128
    37  O   -0.668569
    38  C    0.051473
    39  C   -0.176284
    40  C   -0.188723
    41  C   -0.169512
    42  C   -0.160617
    43  C   -0.199829
    44  H    0.204051
    45  H    0.139727
    46  H    0.157156
    47  H    0.162403
    48  H    0.158548
    49  O   -0.717405
    50  H    0.485951
    51  C    0.663091
    52  O   -0.520022
    53  O   -0.647351
    54  H    0.482970
    55  C   -0.373937
    56  H    0.202867
    57  H    0.166940
    58  C   -0.063073
    59  H    0.126653
    60  H    0.144656
    61  C   -0.663733
    62  H    0.229871
    63  H    0.185340
    64  H    0.205781
    65  C   -0.290740
    66  H    0.146718
    67  H    0.162241
    68  C   -0.480546
    69  H    0.159744
    70  H    0.158752
    71  H    0.152045
    72  C   -0.336154
    73  H    0.184366
    74  H    0.169648
    75  C   -0.335584
    76  H    0.180196
    77  H    0.172763
 Sum of Mulliken charges =  -0.00000

 Dipole moment (field-independent basis, Debye):
    X=              1.6398    Y=              0.0443    Z=             -6.7480  Tot=              6.9446
 Quadrupole moment (field-independent basis, Debye-Ang):
   XX=           -199.9650   YY=           -222.4403   ZZ=           -222.8711
   XY=            -11.5785   XZ=              0.6830   YZ=             13.0118

 Normal termination of Gaussian 16 at Thu Feb  7 22:01:04 2019.
