 Gaussian 16, Revision A.03,
 Gaussian 16:  ES64L-G16RevA.03 25-Dec-2016

 ------------------------------------------
 #p M062X/6-31G* em=gd3 force int=ultrafine
 ------------------------------------------

 -----
 Title
 -----
 Symbolic Z-matrix:
 Charge =  0 Multiplicity = 1

                         Standard orientation:
 ---------------------------------------------------------------------
 Center     Atomic      Atomic             Coordinates (Angstroms)
 Number     Number       Type             X           Y           Z
 ---------------------------------------------------------------------
      1          6           0       -4.781707    0.420299   -0.538293
      2          6           0       -4.970839   -0.866153   -1.347779
      3          6           0       -3.644501   -1.320347   -1.969872
      4          6           0       -2.630242   -1.533750   -0.852363
      5          6           0       -2.395161   -0.221431   -0.060141
      6          6           0       -3.717426    0.254943    0.551278
      7          1           0       -3.769764   -2.241209   -2.549440
      8          1           0       -5.353119   -1.661019   -0.693947
      9          1           0       -5.714514   -0.715698   -2.136608
     10          1           0       -4.476233    1.227759   -1.216452
     11          1           0       -5.731981    0.722235   -0.085985
     12          1           0       -3.008141   -2.293984   -0.161906
     13          1           0       -2.078783    0.537054   -0.787602
     14          1           0       -4.057882   -0.467787    1.300427
     15          1           0       -3.535340    1.210205    1.055090
     16          1           0       -3.298205   -0.535134   -2.655498
     17          7           0       -1.308163   -2.017198   -1.302158
     18          6           0       -0.623899   -1.334263   -2.258230
     19          6           0       -0.610063   -2.807578   -0.443278
     20          6           0        0.732431   -1.381646   -2.354263
     21          1           0       -1.218635   -0.717326   -2.920641
     22          6           0        0.747618   -2.888502   -0.462476
     23          1           0       -1.199546   -3.315451    0.312433
     24          6           0        1.487338   -2.070899   -1.358177
     25          1           0        1.221280   -0.812519   -3.133241
     26          1           0        1.234511   -3.477515    0.301681
     27          7           0        2.807912   -1.957404   -1.272002
     28          6           0        3.535904   -2.395728   -0.071025
     29          1           0        3.426136   -3.473719    0.075482
     30          1           0        3.130736   -1.847172    0.792127
     31          6           0        3.532624   -0.889994   -1.974683
     32          1           0        3.781640   -1.213366   -2.992835
     33          1           0        2.899128    0.000437   -2.009423
     34          7           0       -1.275805   -0.319961    0.863185
     35         16           0       -1.328768   -1.171536    2.251954
     36          8           0       -2.526313   -2.017678    2.230221
     37          8           0       -0.034484   -1.830271    2.447493
     38          6           0       -0.610580    2.691293    0.045026
     39          6           0       -0.137223    2.212480   -1.186865
     40          6           0       -0.922106    2.305575   -2.334581
     41          6           0       -2.197016    2.870035   -2.285793
     42          6           0       -2.680620    3.343546   -1.069405
     43          6           0       -1.889467    3.254719    0.076340
     44          1           0        0.825157    1.714022   -1.215233
     45          1           0       -0.527947    1.940169   -3.280673
     46          1           0       -2.802496    2.946041   -3.184804
     47          1           0       -3.670472    3.787754   -1.010446
     48          1           0       -2.275050    3.639031    1.018657
     49          8           0        0.698314    1.548861    1.897190
     50          1           0       -0.292991   -0.069905    0.551937
     51          6           0        1.839815    0.825639    1.256093
     52          8           0        1.438204    0.218437    0.158099
     53          8           0        2.228134   -0.058218    2.292039
     54          1           0        1.534865   -0.742905    2.314829
     55          6           0        3.038745    1.802846    1.135463
     56          1           0        2.991869    2.518628    1.966362
     57          1           0        3.934922    1.197792    1.321878
     58          6           0        0.230421    2.738369    1.324524
     59          1           0       -0.400365    3.200407    2.095188
     60          1           0        1.063283    3.437897    1.157990
     61          6           0       -1.492272    0.036239    3.545916
     62          1           0       -0.627439    0.698870    3.451949
     63          1           0       -2.428695    0.575149    3.391571
     64          1           0       -1.500921   -0.496178    4.498433
     65          6           0        3.213853    2.536745   -0.190883
     66          1           0        3.216782    1.804379   -1.006807
     67          1           0        2.366452    3.199373   -0.397229
     68          6           0        4.504999    3.353435   -0.216635
     69          1           0        4.637824    3.873741   -1.170337
     70          1           0        4.503558    4.105163    0.578981
     71          1           0        5.378559    2.709302   -0.057386
     72          6           0        4.971454   -1.982461   -0.375313
     73          1           0        5.566691   -1.880374    0.533859
     74          1           0        5.449420   -2.724076   -1.024778
     75          6           0        4.778628   -0.656364   -1.115031
     76          1           0        4.559610    0.131239   -0.389668
     77          1           0        5.643688   -0.356132   -1.710028
 ---------------------------------------------------------------------

 SCF Done:  E(RM062X) =  -1991.35864438     A.U. after   14 cycles

 The electronic state is 1-A.
 Alpha  occ. eigenvalues --  -90.14151 -19.61760 -19.61738 -19.58704 -19.56710
 Alpha  occ. eigenvalues --  -19.51298 -14.85161 -14.80450 -14.75694 -10.63416
 Alpha  occ. eigenvalues --  -10.62785 -10.62272 -10.62173 -10.60712 -10.59320
 Alpha  occ. eigenvalues --  -10.58499 -10.57991 -10.57935 -10.57146 -10.56890
 Alpha  occ. eigenvalues --  -10.56682 -10.55649 -10.55595 -10.55121 -10.54866
 Alpha  occ. eigenvalues --  -10.54830 -10.54774 -10.54713 -10.54563 -10.54391
 Alpha  occ. eigenvalues --  -10.54313 -10.54303 -10.53082 -10.51548 -10.51485
 Alpha  occ. eigenvalues --  -10.49720  -8.45128  -6.37345  -6.37322  -6.37165
 Alpha  occ. eigenvalues --   -1.21976  -1.13595  -1.13499  -1.10232  -1.09348
 Alpha  occ. eigenvalues --   -1.05882  -1.01705  -0.99343  -0.95732  -0.94983
 Alpha  occ. eigenvalues --   -0.93485  -0.90292  -0.88752  -0.85892  -0.85799
 Alpha  occ. eigenvalues --   -0.84818  -0.84698  -0.84250  -0.83051  -0.82679
 Alpha  occ. eigenvalues --   -0.76662  -0.76299  -0.75833  -0.74374  -0.72773
 Alpha  occ. eigenvalues --   -0.71632  -0.68327  -0.68240  -0.67936  -0.67192
 Alpha  occ. eigenvalues --   -0.66751  -0.65223  -0.64866  -0.63524  -0.60562
 Alpha  occ. eigenvalues --   -0.60403  -0.59785  -0.58982  -0.57807  -0.57585
 Alpha  occ. eigenvalues --   -0.57167  -0.56434  -0.55771  -0.55167  -0.54188
 Alpha  occ. eigenvalues --   -0.53531  -0.52649  -0.52442  -0.52416  -0.51901
 Alpha  occ. eigenvalues --   -0.51546  -0.51035  -0.50802  -0.49870  -0.49572
 Alpha  occ. eigenvalues --   -0.49157  -0.48827  -0.48207  -0.48132  -0.48034
 Alpha  occ. eigenvalues --   -0.47660  -0.47457  -0.46905  -0.46446  -0.46102
 Alpha  occ. eigenvalues --   -0.44883  -0.44727  -0.44132  -0.43875  -0.43258
 Alpha  occ. eigenvalues --   -0.42498  -0.42124  -0.41425  -0.41348  -0.41131
 Alpha  occ. eigenvalues --   -0.40897  -0.40472  -0.39995  -0.39821  -0.39346
 Alpha  occ. eigenvalues --   -0.39256  -0.39063  -0.38447  -0.37940  -0.37589
 Alpha  occ. eigenvalues --   -0.37386  -0.36733  -0.36569  -0.35724  -0.34897
 Alpha  occ. eigenvalues --   -0.34383  -0.33947  -0.31678  -0.31072  -0.29765
 Alpha  occ. eigenvalues --   -0.28882  -0.28597  -0.27634  -0.24891  -0.24444
 Alpha virt. eigenvalues --   -0.01510   0.00415   0.03562   0.03767   0.10146
 Alpha virt. eigenvalues --    0.11012   0.11650   0.12172   0.13186   0.13525
 Alpha virt. eigenvalues --    0.14204   0.14624   0.14762   0.15242   0.15600

 Mulliken charges:
               1
     1  C   -0.306236
     2  C   -0.307073
     3  C   -0.309417
     4  C   -0.059957
     5  C    0.056928
     6  C   -0.311680
     7  H    0.173891
     8  H    0.162784
     9  H    0.165417
    10  H    0.151071
    11  H    0.163212
    12  H    0.208858
    13  H    0.172885
    14  H    0.192995
    15  H    0.163596
    16  H    0.154138
    17  N   -0.430688
    18  C    0.067720
    19  C    0.063616
    20  C   -0.202355
    21  H    0.206605
    22  C   -0.208976
    23  H    0.245482
    24  C    0.446441
    25  H    0.191793
    26  H    0.211591
    27  N   -0.526538
    28  C   -0.171760
    29  H    0.169781
    30  H    0.230957
    31  C   -0.154602
    32  H    0.166332
    33  H    0.204427
    34  N   -0.816307
    35  S    1.253744
    36  O   -0.612247
    37  O   -0.607191
    38  C    0.086023
    39  C   -0.182897
    40  C   -0.189533
    41  C   -0.170966
    42  C   -0.163697
    43  C   -0.212173
    44  H    0.209446
    45  H    0.140686
    46  H    0.154865
    47  H    0.158574
    48  H    0.152487
    49  O   -0.549849
    50  H    0.448955
    51  C    0.725674
    52  O   -0.722788
    53  O   -0.718126
    54  H    0.445156
    55  C   -0.338429
    56  H    0.149176
    57  H    0.150787
    58  C   -0.092139
    59  H    0.140348
    60  H    0.147473
    61  C   -0.663194
    62  H    0.272918
    63  H    0.196279
    64  H    0.217509
    65  C   -0.293866
    66  H    0.137410
    67  H    0.146525
    68  C   -0.473599
    69  H    0.149069
    70  H    0.155291
    71  H    0.144219
    72  C   -0.331841
    73  H    0.187351
    74  H    0.163095
    75  C   -0.343428
    76  H    0.196747
    77  H    0.171222
 Sum of Mulliken charges =  -0.00000

 Dipole moment (field-independent basis, Debye):
    X=             -2.4713    Y=             -1.8771    Z=             -6.3870  Tot=              7.1010
 Quadrupole moment (field-independent basis, Debye-Ang):
   XX=           -205.5499   YY=           -222.9876   ZZ=           -219.8076
   XY=            -12.2804   XZ=             -5.3760   YZ=             10.0086

 Normal termination of Gaussian 16 at Thu Feb  7 15:20:54 2019.
