 Gaussian 16, Revision A.03,
 Gaussian 16:  ES64L-G16RevA.03 25-Dec-2016

 ------------------------------------------
 #p M062X/6-31G* em=gd3 force int=ultrafine
 ------------------------------------------

 -----
 Title
 -----
 Symbolic Z-matrix:
 Charge =  0 Multiplicity = 1

                         Standard orientation:
 ---------------------------------------------------------------------
 Center     Atomic      Atomic             Coordinates (Angstroms)
 Number     Number       Type             X           Y           Z
 ---------------------------------------------------------------------
      1          6           0       -4.863649    0.030137   -0.413204
      2          6           0       -4.883484   -1.243365   -1.264134
      3          6           0       -3.498235   -1.523654   -1.858974
      4          6           0       -2.493188   -1.652354   -0.719153
      5          6           0       -2.414609   -0.339539    0.109723
      6          6           0       -3.805829   -0.046675    0.691745
      7          1           0       -3.504886   -2.434095   -2.469170
      8          1           0       -5.188054   -2.096352   -0.643527
      9          1           0       -5.618716   -1.155861   -2.070762
     10          1           0       -4.636472    0.888026   -1.061613
     11          1           0       -5.854354    0.207609    0.018788
     12          1           0       -2.796862   -2.467505   -0.057199
     13          1           0       -2.209479    0.452431   -0.625528
     14          1           0       -4.065127   -0.828531    1.416903
     15          1           0       -3.748517    0.906579    1.231520
     16          1           0       -3.230204   -0.681277   -2.511729
     17          7           0       -1.122511   -1.992887   -1.165505
     18          6           0       -0.518557   -1.283383   -2.146058
     19          6           0       -0.360297   -2.755438   -0.346632
     20          6           0        0.834592   -1.298348   -2.327294
     21          1           0       -1.167650   -0.678604   -2.766178
     22          6           0        0.998843   -2.818148   -0.463521
     23          1           0       -0.890118   -3.272014    0.446485
     24          6           0        1.663114   -2.009458   -1.416189
     25          1           0        1.260007   -0.714634   -3.132974
     26          1           0        1.542357   -3.405296    0.263397
     27          7           0        2.998831   -1.907763   -1.441226
     28          6           0        3.809550   -2.433746   -0.336577
     29          1           0        3.755552   -3.525968   -0.301989
     30          1           0        3.430222   -2.026176    0.611053
     31          6           0        3.683812   -0.810523   -2.140824
     32          1           0        3.934434   -1.113037   -3.165112
     33          1           0        3.038482    0.071464   -2.164097
     34          7           0       -1.293185   -0.296406    1.026661
     35         16           0       -1.253195   -1.259329    2.277461
     36          8           0       -2.233113   -2.367107    2.222768
     37          8           0        0.148460   -1.699530    2.518213
     38          6           0       -1.219545    2.836710   -0.176049
     39          6           0       -0.439104    2.206397   -1.149901
     40          6           0       -0.915324    2.089380   -2.454474
     41          6           0       -2.181065    2.565068   -2.795549
     42          6           0       -2.968273    3.176847   -1.821466
     43          6           0       -2.484441    3.313441   -0.522696
     44          1           0        0.515963    1.768200   -0.866024
     45          1           0       -0.294263    1.615849   -3.211699
     46          1           0       -2.552016    2.463425   -3.811219
     47          1           0       -3.959563    3.544413   -2.070849
     48          1           0       -3.102524    3.784123    0.239321
     49          8           0        0.178101    1.960093    1.607660
     50          1           0       -0.271188    1.100728    1.362391
     51          6           0        2.431519    0.667740    1.270895
     52          8           0        2.153862    0.220184    0.170805
     53          8           0        2.155292    0.052407    2.407463
     54          1           0        1.485156   -0.674162    2.271508
     55          6           0        3.184175    1.960681    1.480676
     56          1           0        2.725270    2.466748    2.334513
     57          1           0        4.213672    1.708562    1.774310
     58          6           0       -0.710879    2.976305    1.244988
     59          1           0       -1.576837    3.026857    1.926660
     60          1           0       -0.171254    3.928122    1.348498
     61          6           0       -1.653331   -0.266389    3.712738
     62          1           0       -0.964183    0.581359    3.718690
     63          1           0       -2.685251    0.075933    3.613198
     64          1           0       -1.531770   -0.875502    4.609565
     65          6           0        3.172674    2.848610    0.243553
     66          1           0        3.588649    2.296467   -0.608027
     67          1           0        2.129719    3.066135   -0.011479
     68          6           0        3.942647    4.148029    0.457799
     69          1           0        3.925150    4.773805   -0.439230
     70          1           0        3.508136    4.727512    1.279071
     71          1           0        4.990494    3.951026    0.709938
     72          6           0        5.211845   -1.917424   -0.646847
     73          1           0        5.828634   -1.848253    0.251373
     74          1           0        5.710739   -2.584922   -1.357152
     75          6           0        4.932554   -0.557723   -1.291876
     76          1           0        4.683742    0.174355   -0.517774
     77          1           0        5.768187   -0.176340   -1.882223
 ---------------------------------------------------------------------

 SCF Done:  E(RM062X) =  -1991.39049815     A.U. after   15 cycles

 The electronic state is 1-A.
 Alpha  occ. eigenvalues --  -90.10400 -19.63401 -19.60119 -19.59344 -19.58632
 Alpha  occ. eigenvalues --  -19.58379 -14.84819 -14.80538 -14.69442 -10.65451
 Alpha  occ. eigenvalues --  -10.63246 -10.62382 -10.61534 -10.59165 -10.59140
 Alpha  occ. eigenvalues --  -10.59019 -10.57814 -10.57424 -10.56859 -10.56649
 Alpha  occ. eigenvalues --  -10.56091 -10.55782 -10.55484 -10.54965 -10.54918
 Alpha  occ. eigenvalues --  -10.54856 -10.54571 -10.54534 -10.54486 -10.53800
 Alpha  occ. eigenvalues --  -10.53732 -10.53558 -10.53118 -10.52919 -10.52648
 Alpha  occ. eigenvalues --  -10.52494  -8.41367  -6.33604  -6.33511  -6.33431
 Alpha  occ. eigenvalues --   -1.19139  -1.17935  -1.12952  -1.10381  -1.09858
 Alpha  occ. eigenvalues --   -1.09183  -1.06202  -0.97566  -0.95245  -0.94835
 Alpha  occ. eigenvalues --   -0.92195  -0.89862  -0.88605  -0.87983  -0.85021
 Alpha  occ. eigenvalues --   -0.84969  -0.83650  -0.83507  -0.83302  -0.80226
 Alpha  occ. eigenvalues --   -0.79080  -0.76373  -0.75673  -0.74668  -0.70951
 Alpha  occ. eigenvalues --   -0.70197  -0.69035  -0.68749  -0.68371  -0.67983
 Alpha  occ. eigenvalues --   -0.65726  -0.64725  -0.63963  -0.63437  -0.61662
 Alpha  occ. eigenvalues --   -0.60285  -0.59411  -0.58944  -0.58375  -0.56177
 Alpha  occ. eigenvalues --   -0.55486  -0.55159  -0.55069  -0.54010  -0.53661
 Alpha  occ. eigenvalues --   -0.53435  -0.53086  -0.52327  -0.51983  -0.51732
 Alpha  occ. eigenvalues --   -0.51176  -0.51018  -0.50613  -0.50266  -0.49832
 Alpha  occ. eigenvalues --   -0.49631  -0.49423  -0.48855  -0.48374  -0.48017
 Alpha  occ. eigenvalues --   -0.47761  -0.47172  -0.46967  -0.46869  -0.45955
 Alpha  occ. eigenvalues --   -0.45885  -0.45256  -0.43972  -0.43653  -0.43425
 Alpha  occ. eigenvalues --   -0.42757  -0.42430  -0.42284  -0.41923  -0.41862
 Alpha  occ. eigenvalues --   -0.41162  -0.40818  -0.40606  -0.39928  -0.39518
 Alpha  occ. eigenvalues --   -0.39378  -0.39174  -0.38698  -0.38375  -0.37782
 Alpha  occ. eigenvalues --   -0.37387  -0.36289  -0.35939  -0.35387  -0.35109
 Alpha  occ. eigenvalues --   -0.34425  -0.33164  -0.32130  -0.31689  -0.31515
 Alpha  occ. eigenvalues --   -0.29826  -0.28881  -0.28327  -0.27564  -0.25458
 Alpha virt. eigenvalues --   -0.01022   0.00643   0.03346   0.03826   0.09088
 Alpha virt. eigenvalues --    0.10109   0.10960   0.11725   0.13009   0.13392
 Alpha virt. eigenvalues --    0.13789   0.14182   0.15242   0.15554   0.15731

 Mulliken charges:
               1
     1  C   -0.304002
     2  C   -0.304220
     3  C   -0.309837
     4  C   -0.073548
     5  C    0.061840
     6  C   -0.305396
     7  H    0.165759
     8  H    0.160898
     9  H    0.159215
    10  H    0.146823
    11  H    0.156626
    12  H    0.213254
    13  H    0.141336
    14  H    0.180140
    15  H    0.148332
    16  H    0.151526
    17  N   -0.424722
    18  C    0.100679
    19  C    0.084645
    20  C   -0.228158
    21  H    0.205876
    22  C   -0.227323
    23  H    0.264008
    24  C    0.428778
    25  H    0.188310
    26  H    0.206667
    27  N   -0.529771
    28  C   -0.156423
    29  H    0.178447
    30  H    0.198796
    31  C   -0.147465
    32  H    0.169481
    33  H    0.196685
    34  N   -0.754781
    35  S    1.248799
    36  O   -0.647036
    37  O   -0.671096
    38  C    0.048805
    39  C   -0.177039
    40  C   -0.187001
    41  C   -0.170217
    42  C   -0.162663
    43  C   -0.197070
    44  H    0.200442
    45  H    0.139924
    46  H    0.156498
    47  H    0.161735
    48  H    0.156029
    49  O   -0.708816
    50  H    0.479653
    51  C    0.641684
    52  O   -0.523959
    53  O   -0.643047
    54  H    0.485505
    55  C   -0.366455
    56  H    0.199360
    57  H    0.163862
    58  C   -0.070203
    59  H    0.129235
    60  H    0.162325
    61  C   -0.655056
    62  H    0.217776
    63  H    0.188277
    64  H    0.208330
    65  C   -0.286824
    66  H    0.142784
    67  H    0.169545
    68  C   -0.480548
    69  H    0.158171
    70  H    0.158840
    71  H    0.149297
    72  C   -0.337526
    73  H    0.183807
    74  H    0.170116
    75  C   -0.335548
    76  H    0.183398
    77  H    0.173437
 Sum of Mulliken charges =  -0.00000

 Dipole moment (field-independent basis, Debye):
    X=              1.5919    Y=             -0.4209    Z=             -6.4754  Tot=              6.6815
 Quadrupole moment (field-independent basis, Debye-Ang):
   XX=           -197.5386   YY=           -223.9836   ZZ=           -221.4163
   XY=            -12.2637   XZ=             -1.6559   YZ=             12.1898

 Normal termination of Gaussian 16 at Fri Feb  8 01:39:20 2019.
