 Gaussian 16, Revision A.03,
 Gaussian 16:  ES64L-G16RevA.03 25-Dec-2016

 ------------------------------------------
 #p M062X/6-31G* em=gd3 force int=ultrafine
 ------------------------------------------

 -----
 Title
 -----
 Symbolic Z-matrix:
 Charge =  0 Multiplicity = 1

                         Standard orientation:
 ---------------------------------------------------------------------
 Center     Atomic      Atomic             Coordinates (Angstroms)
 Number     Number       Type             X           Y           Z
 ---------------------------------------------------------------------
      1          6           0       -4.781407    0.412910   -0.546428
      2          6           0       -4.965857   -0.872713   -1.358313
      3          6           0       -3.636989   -1.323239   -1.977639
      4          6           0       -2.625208   -1.536331   -0.857805
      5          6           0       -2.394448   -0.224424   -0.063455
      6          6           0       -3.719305    0.248282    0.545356
      7          1           0       -3.758884   -2.243382   -2.559081
      8          1           0       -5.348181   -1.669356   -0.706677
      9          1           0       -5.707792   -0.722575   -2.148833
     10          1           0       -4.476185    1.222055   -1.222659
     11          1           0       -5.733400    0.712049   -0.095875
     12          1           0       -3.003654   -2.297969   -0.169174
     13          1           0       -2.077985    0.535491   -0.789407
     14          1           0       -4.060024   -0.476224    1.292672
     15          1           0       -3.540541    1.203215    1.050980
     16          1           0       -3.290533   -0.536159   -2.661036
     17          7           0       -1.301309   -2.017254   -1.304839
     18          6           0       -0.616781   -1.334667   -2.260871
     19          6           0       -0.603247   -2.805589   -0.443975
     20          6           0        0.739776   -1.380528   -2.355219
     21          1           0       -1.211457   -0.719637   -2.925085
     22          6           0        0.754575   -2.884039   -0.460804
     23          1           0       -1.193137   -3.313933    0.311097
     24          6           0        1.494273   -2.066668   -1.356701
     25          1           0        1.228751   -0.812174   -3.134672
     26          1           0        1.241299   -3.471202    0.304897
     27          7           0        2.814602   -1.950910   -1.268624
     28          6           0        3.541251   -2.383835   -0.064802
     29          1           0        3.433084   -3.461508    0.085172
     30          1           0        3.133515   -1.833191    0.795844
     31          6           0        3.539062   -0.885685   -1.974544
     32          1           0        3.789290   -1.212675   -2.991235
     33          1           0        2.904949    0.004126   -2.014021
     34          7           0       -1.277107   -0.321648    0.862392
     35         16           0       -1.332393   -1.174296    2.250082
     36          8           0       -2.528143   -2.022946    2.225296
     37          8           0       -0.037388   -1.830779    2.448968
     38          6           0       -0.615190    2.693346    0.050236
     39          6           0       -0.141541    2.218505   -1.182951
     40          6           0       -0.927403    2.312167   -2.329921
     41          6           0       -2.203733    2.873296   -2.278888
     42          6           0       -2.687855    3.342499   -1.061053
     43          6           0       -1.895616    3.253102    0.083933
     44          1           0        0.821840    1.722598   -1.213082
     45          1           0       -0.533102    1.949851   -3.277101
     46          1           0       -2.810099    2.949770   -3.177264
     47          1           0       -3.679033    3.783703   -1.000209
     48          1           0       -2.281610    3.633947    1.027590
     49          8           0        0.694378    1.550258    1.901183
     50          1           0       -0.293045   -0.070790    0.553020
     51          6           0        1.833589    0.826762    1.259230
     52          8           0        1.430112    0.220028    0.161263
     53          8           0        2.222788   -0.057715    2.294341
     54          1           0        1.529327   -0.741699    2.317882
     55          6           0        3.034694    1.801784    1.136278
     56          1           0        2.990861    2.517699    1.967158
     57          1           0        3.929452    1.194645    1.321524
     58          6           0        0.226997    2.740102    1.328773
     59          1           0       -0.402480    3.203132    2.099769
     60          1           0        1.060572    3.438118    1.161384
     61          6           0       -1.501408    0.032643    3.544192
     62          1           0       -0.637974    0.697400    3.452235
     63          1           0       -2.438778    0.569438    3.388162
     64          1           0       -1.510675   -0.500011    4.496549
     65          6           0        3.209325    2.534075   -0.191148
     66          1           0        3.197395    1.803097   -1.006281
     67          1           0        2.369197    3.210324   -0.389899
     68          6           0        4.511458    3.333244   -0.226436
     69          1           0        4.643041    3.854087   -1.180007
     70          1           0        4.528332    4.083124    0.570487
     71          1           0        5.377491    2.675445   -0.077391
     72          6           0        4.976805   -1.969650   -0.368058
     73          1           0        5.569779   -1.862140    0.541973
     74          1           0        5.457506   -2.713688   -1.012678
     75          6           0        4.784118   -0.647405   -1.114762
     76          1           0        4.564569    0.144044   -0.393818
     77          1           0        5.649721   -0.350058   -1.710467
 ---------------------------------------------------------------------

 SCF Done:  E(RM062X) =  -1991.35869880     A.U. after   14 cycles

 The electronic state is 1-A.
 Alpha  occ. eigenvalues --  -90.14135 -19.61746 -19.61724 -19.58720 -19.56712
 Alpha  occ. eigenvalues --  -19.51310 -14.85156 -14.80452 -14.75661 -10.63414
 Alpha  occ. eigenvalues --  -10.62783 -10.62281 -10.62161 -10.60705 -10.59307
 Alpha  occ. eigenvalues --  -10.58524 -10.57986 -10.57928 -10.57137 -10.56888
 Alpha  occ. eigenvalues --  -10.56678 -10.55643 -10.55589 -10.55128 -10.54885
 Alpha  occ. eigenvalues --  -10.54826 -10.54766 -10.54709 -10.54558 -10.54386
 Alpha  occ. eigenvalues --  -10.54309 -10.54292 -10.53084 -10.51568 -10.51500
 Alpha  occ. eigenvalues --  -10.49732  -8.45112  -6.37329  -6.37307  -6.37150
 Alpha  occ. eigenvalues --   -1.21961  -1.13610  -1.13506  -1.10216  -1.09349
 Alpha  occ. eigenvalues --   -1.05897  -1.01690  -0.99348  -0.95725  -0.94980
 Alpha  occ. eigenvalues --   -0.93481  -0.90286  -0.88752  -0.85885  -0.85806
 Alpha  occ. eigenvalues --   -0.84818  -0.84692  -0.84259  -0.83049  -0.82669
 Alpha  occ. eigenvalues --   -0.76659  -0.76306  -0.75834  -0.74386  -0.72764
 Alpha  occ. eigenvalues --   -0.71623  -0.68328  -0.68247  -0.67935  -0.67185
 Alpha  occ. eigenvalues --   -0.66752  -0.65220  -0.64866  -0.63523  -0.60568
 Alpha  occ. eigenvalues --   -0.60403  -0.59790  -0.58964  -0.57809  -0.57581
 Alpha  occ. eigenvalues --   -0.57162  -0.56432  -0.55764  -0.55170  -0.54187
 Alpha  occ. eigenvalues --   -0.53522  -0.52648  -0.52435  -0.52405  -0.51903
 Alpha  occ. eigenvalues --   -0.51543  -0.51043  -0.50828  -0.49866  -0.49580
 Alpha  occ. eigenvalues --   -0.49157  -0.48823  -0.48208  -0.48128  -0.48046
 Alpha  occ. eigenvalues --   -0.47655  -0.47453  -0.46902  -0.46450  -0.46101
 Alpha  occ. eigenvalues --   -0.44887  -0.44721  -0.44127  -0.43876  -0.43257
 Alpha  occ. eigenvalues --   -0.42491  -0.42118  -0.41438  -0.41360  -0.41139
 Alpha  occ. eigenvalues --   -0.40896  -0.40468  -0.39994  -0.39821  -0.39365
 Alpha  occ. eigenvalues --   -0.39253  -0.39060  -0.38451  -0.37930  -0.37587
 Alpha  occ. eigenvalues --   -0.37388  -0.36733  -0.36569  -0.35719  -0.34894
 Alpha  occ. eigenvalues --   -0.34380  -0.33938  -0.31686  -0.31060  -0.29762
 Alpha  occ. eigenvalues --   -0.28884  -0.28595  -0.27629  -0.24908  -0.24456
 Alpha virt. eigenvalues --   -0.01502   0.00422   0.03568   0.03772   0.10150
 Alpha virt. eigenvalues --    0.11020   0.11647   0.12161   0.13190   0.13530
 Alpha virt. eigenvalues --    0.14202   0.14636   0.14769   0.15250   0.15601

 Mulliken charges:
               1
     1  C   -0.306217
     2  C   -0.307044
     3  C   -0.309508
     4  C   -0.059883
     5  C    0.057035
     6  C   -0.311741
     7  H    0.173858
     8  H    0.162774
     9  H    0.165378
    10  H    0.151048
    11  H    0.163166
    12  H    0.208792
    13  H    0.172835
    14  H    0.193020
    15  H    0.163566
    16  H    0.154090
    17  N   -0.430790
    18  C    0.067927
    19  C    0.063622
    20  C   -0.202644
    21  H    0.206658
    22  C   -0.208937
    23  H    0.245561
    24  C    0.446784
    25  H    0.191680
    26  H    0.211619
    27  N   -0.526761
    28  C   -0.172112
    29  H    0.169799
    30  H    0.231503
    31  C   -0.154529
    32  H    0.166595
    33  H    0.203923
    34  N   -0.816500
    35  S    1.253786
    36  O   -0.612288
    37  O   -0.607494
    38  C    0.086489
    39  C   -0.182317
    40  C   -0.189460
    41  C   -0.170894
    42  C   -0.163697
    43  C   -0.212193
    44  H    0.208782
    45  H    0.140732
    46  H    0.154842
    47  H    0.158555
    48  H    0.152477
    49  O   -0.549332
    50  H    0.449122
    51  C    0.725945
    52  O   -0.723232
    53  O   -0.718097
    54  H    0.445301
    55  C   -0.338446
    56  H    0.149304
    57  H    0.150650
    58  C   -0.092462
    59  H    0.140549
    60  H    0.147430
    61  C   -0.663121
    62  H    0.272610
    63  H    0.196252
    64  H    0.217463
    65  C   -0.294101
    66  H    0.138404
    67  H    0.146316
    68  C   -0.473811
    69  H    0.149089
    70  H    0.155540
    71  H    0.143796
    72  C   -0.331822
    73  H    0.187418
    74  H    0.163165
    75  C   -0.343535
    76  H    0.196422
    77  H    0.171292
 Sum of Mulliken charges =  -0.00000

 Dipole moment (field-independent basis, Debye):
    X=             -2.4311    Y=             -1.8607    Z=             -6.4029  Tot=              7.0971
 Quadrupole moment (field-independent basis, Debye-Ang):
   XX=           -205.4688   YY=           -223.0647   ZZ=           -219.7821
   XY=            -12.2473   XZ=             -5.3892   YZ=             10.0146

 Normal termination of Gaussian 16 at Thu Feb  7 15:34:02 2019.
