 Gaussian 16, Revision A.03,
 Gaussian 16:  ES64L-G16RevA.03 25-Dec-2016

 ------------------------------------------
 #p M062X/6-31G* em=gd3 force int=ultrafine
 ------------------------------------------

 -----
 Title
 -----
 Symbolic Z-matrix:
 Charge =  0 Multiplicity = 1

                         Standard orientation:
 ---------------------------------------------------------------------
 Center     Atomic      Atomic             Coordinates (Angstroms)
 Number     Number       Type             X           Y           Z
 ---------------------------------------------------------------------
      1          6           0       -4.844501    0.412819   -0.511186
      2          6           0       -4.986074   -0.859768   -1.351305
      3          6           0       -3.632404   -1.274459   -1.940303
      4          6           0       -2.641493   -1.495660   -0.801419
      5          6           0       -2.460964   -0.205807    0.040388
      6          6           0       -3.815992    0.234599    0.610480
      7          1           0       -3.722401   -2.182264   -2.547080
      8          1           0       -5.374658   -1.674296   -0.725941
      9          1           0       -5.706314   -0.707701   -2.161649
     10          1           0       -4.522642    1.237268   -1.162321
     11          1           0       -5.815183    0.695668   -0.090768
     12          1           0       -3.012993   -2.291528   -0.148175
     13          1           0       -2.137452    0.574806   -0.661900
     14          1           0       -4.167772   -0.509211    1.334477
     15          1           0       -3.664768    1.181499    1.141725
     16          1           0       -3.284579   -0.464018   -2.595063
     17          7           0       -1.298979   -1.935129   -1.246706
     18          6           0       -0.635098   -1.253233   -2.212537
     19          6           0       -0.588421   -2.735280   -0.413445
     20          6           0        0.718675   -1.326669   -2.357942
     21          1           0       -1.237804   -0.617591   -2.848251
     22          6           0        0.768088   -2.851290   -0.488705
     23          1           0       -1.160200   -3.241092    0.356972
     24          6           0        1.495097   -2.064753   -1.419239
     25          1           0        1.189158   -0.754906   -3.146908
     26          1           0        1.265377   -3.460962    0.252515
     27          7           0        2.829113   -2.010875   -1.400135
     28          6           0        3.578838   -2.522838   -0.243602
     29          1           0        3.467956   -3.607208   -0.158248
     30          1           0        3.193779   -2.039336    0.665241
     31          6           0        3.575126   -0.942254   -2.087472
     32          1           0        3.842197   -1.264498   -3.100935
     33          1           0        2.964155   -0.037345   -2.129996
     34          7           0       -1.353563   -0.323510    0.973092
     35         16           0       -1.395230   -1.223008    2.316558
     36          8           0       -2.564664   -2.112311    2.280596
     37          8           0       -0.077102   -1.859120    2.489999
     38          6           0       -0.700669    2.757940   -0.066568
     39          6           0       -0.138545    2.112680   -1.177772
     40          6           0       -0.792555    2.145697   -2.408080
     41          6           0       -2.030032    2.779397   -2.539690
     42          6           0       -2.603859    3.396257   -1.430406
     43          6           0       -1.935252    3.387062   -0.208394
     44          1           0        0.789165    1.555285   -1.053919
     45          1           0       -0.337402    1.670683   -3.275715
     46          1           0       -2.540911    2.797748   -3.497819
     47          1           0       -3.569711    3.885690   -1.511889
     48          1           0       -2.379201    3.862458    0.663301
     49          8           0        0.360238    1.424061    1.627366
     50          1           0       -0.553204    0.491830    1.104842
     51          6           0        2.285579    0.619783    1.174362
     52          8           0        2.059719    0.153940    0.062777
     53          8           0        2.237035   -0.133867    2.289252
     54          1           0        1.532242   -0.808333    2.177251
     55          6           0        3.090775    1.884212    1.388421
     56          1           0        2.652065    2.471691    2.201493
     57          1           0        4.069581    1.538791    1.750860
     58          6           0       -0.023052    2.698738    1.293001
     59          1           0       -0.721651    3.125953    2.038430
     60          1           0        0.841727    3.395314    1.280126
     61          6           0       -1.534174   -0.055328    3.656613
     62          1           0       -0.703750    0.643783    3.509625
     63          1           0       -2.496310    0.453267    3.575846
     64          1           0       -1.451522   -0.596707    4.600132
     65          6           0        3.283864    2.719078    0.125290
     66          1           0        3.667663    2.073686   -0.673553
     67          1           0        2.319648    3.094733   -0.234873
     68          6           0        4.239746    3.887379    0.358136
     69          1           0        4.407935    4.459177   -0.559395
     70          1           0        3.844477    4.575405    1.113214
     71          1           0        5.212562    3.530800    0.714626
     72          6           0        5.010997   -2.087463   -0.533558
     73          1           0        5.612260   -2.032913    0.375946
     74          1           0        5.487249   -2.790984   -1.224636
     75          6           0        4.806065   -0.727246   -1.202651
     76          1           0        4.555835    0.017308   -0.441701
     77          1           0        5.672677   -0.380410   -1.768993
 ---------------------------------------------------------------------

 SCF Done:  E(RM062X) =  -1991.35986240     A.U. after   15 cycles

 The electronic state is 1-A.
 Alpha  occ. eigenvalues --  -90.12915 -19.61791 -19.60878 -19.60649 -19.57635
 Alpha  occ. eigenvalues --  -19.53471 -14.85304 -14.80584 -14.73338 -10.64797
 Alpha  occ. eigenvalues --  -10.63535 -10.62807 -10.62246 -10.60435 -10.58807
 Alpha  occ. eigenvalues --  -10.58709 -10.58539 -10.58079 -10.57237 -10.56365
 Alpha  occ. eigenvalues --  -10.55668 -10.55294 -10.55278 -10.54902 -10.54813
 Alpha  occ. eigenvalues --  -10.54486 -10.54419 -10.54349 -10.54345 -10.53743
 Alpha  occ. eigenvalues --  -10.53661 -10.53287 -10.52954 -10.52431 -10.52159
 Alpha  occ. eigenvalues --  -10.52093  -8.43917  -6.36139  -6.36077  -6.35978
 Alpha  occ. eigenvalues --   -1.20658  -1.17051  -1.13505  -1.09499  -1.08952
 Alpha  occ. eigenvalues --   -1.07473  -1.03583  -0.99914  -0.95533  -0.94452
 Alpha  occ. eigenvalues --   -0.93244  -0.90281  -0.88840  -0.87215  -0.85219
 Alpha  occ. eigenvalues --   -0.84679  -0.84347  -0.83641  -0.82742  -0.81779
 Alpha  occ. eigenvalues --   -0.78184  -0.76723  -0.75903  -0.72139  -0.71796
 Alpha  occ. eigenvalues --   -0.71294  -0.68585  -0.68517  -0.68173  -0.67273
 Alpha  occ. eigenvalues --   -0.66161  -0.64668  -0.64173  -0.63206  -0.61917
 Alpha  occ. eigenvalues --   -0.60451  -0.60125  -0.58385  -0.58288  -0.57042
 Alpha  occ. eigenvalues --   -0.56434  -0.56307  -0.54932  -0.54162  -0.53829
 Alpha  occ. eigenvalues --   -0.53266  -0.53133  -0.52667  -0.52072  -0.51754
 Alpha  occ. eigenvalues --   -0.51470  -0.50923  -0.50773  -0.50378  -0.50035
 Alpha  occ. eigenvalues --   -0.49863  -0.48684  -0.48477  -0.48403  -0.47475
 Alpha  occ. eigenvalues --   -0.47241  -0.47231  -0.46907  -0.46231  -0.46054
 Alpha  occ. eigenvalues --   -0.45830  -0.44876  -0.44698  -0.43618  -0.43222
 Alpha  occ. eigenvalues --   -0.42780  -0.42089  -0.42068  -0.41865  -0.41465
 Alpha  occ. eigenvalues --   -0.40957  -0.40721  -0.40104  -0.39840  -0.39589
 Alpha  occ. eigenvalues --   -0.39486  -0.38787  -0.38422  -0.38174  -0.38035
 Alpha  occ. eigenvalues --   -0.37538  -0.37154  -0.36794  -0.36379  -0.35064
 Alpha  occ. eigenvalues --   -0.34386  -0.34018  -0.33363  -0.30087  -0.29545
 Alpha  occ. eigenvalues --   -0.29138  -0.28636  -0.28065  -0.25662  -0.24671
 Alpha virt. eigenvalues --   -0.01494   0.00313   0.03776   0.04504   0.10197
 Alpha virt. eigenvalues --    0.11001   0.11281   0.11753   0.12346   0.13428
 Alpha virt. eigenvalues --    0.13820   0.14089   0.15055   0.15367   0.15438

 Mulliken charges:
               1
     1  C   -0.306583
     2  C   -0.306428
     3  C   -0.311403
     4  C   -0.065574
     5  C    0.072005
     6  C   -0.307065
     7  H    0.171308
     8  H    0.162101
     9  H    0.163944
    10  H    0.151647
    11  H    0.161838
    12  H    0.209128
    13  H    0.165855
    14  H    0.187182
    15  H    0.160358
    16  H    0.155816
    17  N   -0.430413
    18  C    0.092081
    19  C    0.092091
    20  C   -0.220761
    21  H    0.207046
    22  C   -0.226336
    23  H    0.251309
    24  C    0.431831
    25  H    0.192025
    26  H    0.208959
    27  N   -0.521122
    28  C   -0.160716
    29  H    0.174829
    30  H    0.203850
    31  C   -0.147073
    32  H    0.167938
    33  H    0.200087
    34  N   -0.820650
    35  S    1.246130
    36  O   -0.615366
    37  O   -0.627522
    38  C    0.058328
    39  C   -0.193155
    40  C   -0.190193
    41  C   -0.175767
    42  C   -0.161788
    43  C   -0.205952
    44  H    0.209028
    45  H    0.134561
    46  H    0.152473
    47  H    0.156963
    48  H    0.154173
    49  O   -0.705301
    50  H    0.462718
    51  C    0.680948
    52  O   -0.554229
    53  O   -0.654168
    54  H    0.465718
    55  C   -0.357032
    56  H    0.189608
    57  H    0.157520
    58  C   -0.033283
    59  H    0.094060
    60  H    0.111197
    61  C   -0.671895
    62  H    0.264981
    63  H    0.195264
    64  H    0.214109
    65  C   -0.291436
    66  H    0.141823
    67  H    0.163845
    68  C   -0.478944
    69  H    0.155792
    70  H    0.157804
    71  H    0.149016
    72  C   -0.334746
    73  H    0.184910
    74  H    0.166795
    75  C   -0.336091
    76  H    0.188680
    77  H    0.171319
 Sum of Mulliken charges =  -0.00000

 Dipole moment (field-independent basis, Debye):
    X=             -0.1943    Y=             -1.9585    Z=             -6.2409  Tot=              6.5439
 Quadrupole moment (field-independent basis, Debye-Ang):
   XX=           -201.0660   YY=           -225.6439   ZZ=           -220.1734
   XY=            -11.4060   XZ=             -1.6075   YZ=             10.8023

 Normal termination of Gaussian 16 at Thu Feb  7 19:32:33 2019.
