 Gaussian 16, Revision A.03,
 Gaussian 16:  ES64L-G16RevA.03 25-Dec-2016

 ------------------------------------------
 #p M062X/6-31G* em=gd3 force int=ultrafine
 ------------------------------------------

 -----
 Title
 -----
 Symbolic Z-matrix:
 Charge =  0 Multiplicity = 1

                         Standard orientation:
 ---------------------------------------------------------------------
 Center     Atomic      Atomic             Coordinates (Angstroms)
 Number     Number       Type             X           Y           Z
 ---------------------------------------------------------------------
      1          6           0       -4.844516    0.387996   -0.505955
      2          6           0       -4.979062   -0.882761   -1.350163
      3          6           0       -3.623240   -1.289104   -1.940289
      4          6           0       -2.633405   -1.506942   -0.801574
      5          6           0       -2.455821   -0.220774    0.047445
      6          6           0       -3.815064    0.211738    0.614482
      7          1           0       -3.708694   -2.195458   -2.549768
      8          1           0       -5.362945   -1.701021   -0.726811
      9          1           0       -5.700141   -0.732594   -2.160221
     10          1           0       -4.527188    1.215693   -1.155643
     11          1           0       -5.817204    0.664689   -0.085865
     12          1           0       -2.997972   -2.305980   -0.148571
     13          1           0       -2.143839    0.563625   -0.658914
     14          1           0       -4.161737   -0.535015    1.338014
     15          1           0       -3.669102    1.158415    1.148671
     16          1           0       -3.280065   -0.474494   -2.592670
     17          7           0       -1.286564   -1.937140   -1.247566
     18          6           0       -0.627490   -1.250642   -2.211624
     19          6           0       -0.572312   -2.733201   -0.415327
     20          6           0        0.727408   -1.317838   -2.359108
     21          1           0       -1.233582   -0.615809   -2.844958
     22          6           0        0.785804   -2.845707   -0.494888
     23          1           0       -1.140418   -3.242026    0.355793
     24          6           0        1.506850   -2.056547   -1.424880
     25          1           0        1.194332   -0.742329   -3.147645
     26          1           0        1.285894   -3.453621    0.245996
     27          7           0        2.843782   -1.996074   -1.407069
     28          6           0        3.595192   -2.506503   -0.251829
     29          1           0        3.492323   -3.591817   -0.169748
     30          1           0        3.206267   -2.033838    0.661115
     31          6           0        3.582913   -0.920935   -2.090577
     32          1           0        3.852895   -1.237268   -3.105015
     33          1           0        2.967098   -0.019009   -2.133831
     34          7           0       -1.349590   -0.333847    0.970841
     35         16           0       -1.389040   -1.229036    2.293688
     36          8           0       -2.540929   -2.148046    2.285324
     37          8           0       -0.055641   -1.846942    2.483054
     38          6           0       -0.735346    2.770637   -0.063558
     39          6           0       -0.158422    2.127894   -1.167737
     40          6           0       -0.805938    2.154188   -2.400797
     41          6           0       -2.047591    2.778232   -2.538370
     42          6           0       -2.632941    3.392719   -1.434263
     43          6           0       -1.971621    3.390720   -0.209417
     44          1           0        0.771285    1.575302   -1.039166
     45          1           0       -0.344139    1.679093   -3.264518
     46          1           0       -2.554850    2.789097   -3.498257
     47          1           0       -3.602737    3.872488   -1.519256
     48          1           0       -2.421185    3.859698    0.662382
     49          8           0        0.270118    1.413732    1.627231
     50          1           0       -0.469538    0.636717    1.187468
     51          6           0        2.355117    0.587460    1.173154
     52          8           0        2.079329    0.155266    0.067616
     53          8           0        2.250436   -0.139034    2.289254
     54          1           0        1.532338   -0.806558    2.177681
     55          6           0        3.103680    1.882294    1.395356
     56          1           0        2.623071    2.446631    2.202179
     57          1           0        4.089230    1.581744    1.776237
     58          6           0       -0.081970    2.708462    1.299128
     59          1           0       -0.770699    3.148742    2.042177
     60          1           0        0.807179    3.369503    1.301486
     61          6           0       -1.539395   -0.076041    3.654295
     62          1           0       -0.719114    0.634995    3.518347
     63          1           0       -2.505166    0.426786    3.578687
     64          1           0       -1.450553   -0.619443    4.596052
     65          6           0        3.275365    2.728796    0.136182
     66          1           0        3.662079    2.095560   -0.670660
     67          1           0        2.303078    3.093997   -0.213971
     68          6           0        4.216705    3.908554    0.371291
     69          1           0        4.376132    4.484366   -0.545107
     70          1           0        3.815249    4.590292    1.128714
     71          1           0        5.194299    3.562215    0.724332
     72          6           0        5.024945   -2.059813   -0.537492
     73          1           0        5.624560   -2.002951    0.373025
     74          1           0        5.507075   -2.758550   -1.229040
     75          6           0        4.813372   -0.700119   -1.205899
     76          1           0        4.563752    0.044282   -0.444595
     77          1           0        5.678194   -0.348540   -1.771902
 ---------------------------------------------------------------------

 SCF Done:  E(RM062X) =  -1991.36791779     A.U. after   15 cycles

 The electronic state is 1-A.
 Alpha  occ. eigenvalues --  -90.11273 -19.63119 -19.59392 -19.59282 -19.59218
 Alpha  occ. eigenvalues --  -19.55614 -14.84990 -14.80490 -14.70654 -10.65655
 Alpha  occ. eigenvalues --  -10.63355 -10.62586 -10.61924 -10.59671 -10.58980
 Alpha  occ. eigenvalues --  -10.58834 -10.57929 -10.57378 -10.56973 -10.56023
 Alpha  occ. eigenvalues --  -10.55864 -10.55856 -10.55574 -10.54834 -10.54765
 Alpha  occ. eigenvalues --  -10.54692 -10.54597 -10.54018 -10.53849 -10.53849
 Alpha  occ. eigenvalues --  -10.53839 -10.53450 -10.53289 -10.53250 -10.52985
 Alpha  occ. eigenvalues --  -10.52723  -8.42246  -6.34477  -6.34395  -6.34314
 Alpha  occ. eigenvalues --   -1.18962  -1.18546  -1.13156  -1.09717  -1.08930
 Alpha  occ. eigenvalues --   -1.07183  -1.06463  -0.98401  -0.95072  -0.94906
 Alpha  occ. eigenvalues --   -0.92637  -0.90015  -0.88681  -0.88130  -0.84798
 Alpha  occ. eigenvalues --   -0.84452  -0.84020  -0.83833  -0.83128  -0.80636
 Alpha  occ. eigenvalues --   -0.79145  -0.76471  -0.75738  -0.73184  -0.71350
 Alpha  occ. eigenvalues --   -0.70713  -0.69115  -0.68632  -0.68384  -0.67739
 Alpha  occ. eigenvalues --   -0.65486  -0.64900  -0.64045  -0.63194  -0.62193
 Alpha  occ. eigenvalues --   -0.60396  -0.59702  -0.58546  -0.58315  -0.56391
 Alpha  occ. eigenvalues --   -0.55892  -0.55555  -0.55036  -0.54635  -0.53672
 Alpha  occ. eigenvalues --   -0.53643  -0.53204  -0.52394  -0.52055  -0.51415
 Alpha  occ. eigenvalues --   -0.51201  -0.50964  -0.50739  -0.50294  -0.49812
 Alpha  occ. eigenvalues --   -0.49660  -0.49408  -0.48663  -0.48372  -0.47671
 Alpha  occ. eigenvalues --   -0.47209  -0.46948  -0.46914  -0.46356  -0.46172
 Alpha  occ. eigenvalues --   -0.45697  -0.45359  -0.44276  -0.43624  -0.43545
 Alpha  occ. eigenvalues --   -0.43071  -0.42639  -0.42080  -0.41709  -0.41519
 Alpha  occ. eigenvalues --   -0.41278  -0.40683  -0.40387  -0.40125  -0.39532
 Alpha  occ. eigenvalues --   -0.39426  -0.39105  -0.38858  -0.38761  -0.37792
 Alpha  occ. eigenvalues --   -0.37641  -0.36690  -0.36054  -0.35489  -0.35021
 Alpha  occ. eigenvalues --   -0.34252  -0.33235  -0.32566  -0.31346  -0.29709
 Alpha  occ. eigenvalues --   -0.29535  -0.28445  -0.27397  -0.27212  -0.25854
 Alpha virt. eigenvalues --   -0.01257   0.00539   0.03474   0.04155   0.09703
 Alpha virt. eigenvalues --    0.10182   0.11108   0.11628   0.12796   0.13406
 Alpha virt. eigenvalues --    0.13804   0.14369   0.15148   0.15348   0.15746

 Mulliken charges:
               1
     1  C   -0.304901
     2  C   -0.305317
     3  C   -0.310212
     4  C   -0.067066
     5  C    0.076740
     6  C   -0.305852
     7  H    0.168394
     8  H    0.161866
     9  H    0.160976
    10  H    0.147166
    11  H    0.158942
    12  H    0.208316
    13  H    0.150831
    14  H    0.186047
    15  H    0.153802
    16  H    0.152158
    17  N   -0.427166
    18  C    0.095316
    19  C    0.096812
    20  C   -0.224634
    21  H    0.205833
    22  C   -0.228071
    23  H    0.254028
    24  C    0.427485
    25  H    0.189387
    26  H    0.208265
    27  N   -0.523311
    28  C   -0.159615
    29  H    0.176941
    30  H    0.199348
    31  C   -0.145972
    32  H    0.169128
    33  H    0.196192
    34  N   -0.813210
    35  S    1.248210
    36  O   -0.625884
    37  O   -0.649963
    38  C    0.055912
    39  C   -0.183651
    40  C   -0.189454
    41  C   -0.172762
    42  C   -0.160916
    43  C   -0.201719
    44  H    0.204791
    45  H    0.137039
    46  H    0.154808
    47  H    0.159682
    48  H    0.156832
    49  O   -0.725653
    50  H    0.488562
    51  C    0.685017
    52  O   -0.530855
    53  O   -0.648339
    54  H    0.474388
    55  C   -0.372733
    56  H    0.196148
    57  H    0.166395
    58  C   -0.047188
    59  H    0.108841
    60  H    0.123103
    61  C   -0.670472
    62  H    0.250181
    63  H    0.188612
    64  H    0.208073
    65  C   -0.292743
    66  H    0.146023
    67  H    0.165274
    68  C   -0.480083
    69  H    0.159205
    70  H    0.158989
    71  H    0.151197
    72  C   -0.334740
    73  H    0.184194
    74  H    0.168530
    75  C   -0.335393
    76  H    0.181536
    77  H    0.172358
 Sum of Mulliken charges =  -0.00000

 Dipole moment (field-independent basis, Debye):
    X=              1.2600    Y=             -0.6069    Z=             -6.4922  Tot=              6.6411
 Quadrupole moment (field-independent basis, Debye-Ang):
   XX=           -200.9521   YY=           -224.0372   ZZ=           -221.6799
   XY=            -11.2125   XZ=              0.5689   YZ=             12.4993

 Normal termination of Gaussian 16 at Thu Feb  7 20:06:34 2019.
