 Gaussian 16, Revision A.03,
 Gaussian 16:  ES64L-G16RevA.03 25-Dec-2016

 ------------------------------------------
 #p M062X/6-31G* em=gd3 force int=ultrafine
 ------------------------------------------

 -----
 Title
 -----
 Symbolic Z-matrix:
 Charge =  0 Multiplicity = 1

                         Standard orientation:
 ---------------------------------------------------------------------
 Center     Atomic      Atomic             Coordinates (Angstroms)
 Number     Number       Type             X           Y           Z
 ---------------------------------------------------------------------
      1          6           0       -4.781442    0.414647   -0.544308
      2          6           0       -4.967040   -0.871112   -1.355711
      3          6           0       -3.638810   -1.322487   -1.975795
      4          6           0       -2.626416   -1.535729   -0.856570
      5          6           0       -2.394585   -0.223776   -0.062659
      6          6           0       -3.718771    0.249777    0.546878
      7          1           0       -3.761545   -2.242756   -2.556857
      8          1           0       -5.349338   -1.667375   -0.703588
      9          1           0       -5.709432   -0.720829   -2.145784
     10          1           0       -4.476188    1.223450   -1.220960
     11          1           0       -5.733000    0.714425   -0.093273
     12          1           0       -3.004691   -2.297079   -0.167534
     13          1           0       -2.078170    0.535836   -0.788934
     14          1           0       -4.059389   -0.474359    1.294610
     15          1           0       -3.539177    1.204754    1.052121
     16          1           0       -3.292409   -0.535799   -2.659680
     17          7           0       -1.302945   -2.017225   -1.304329
     18          6           0       -0.618499   -1.334463   -2.260317
     19          6           0       -0.604868   -2.806120   -0.444010
     20          6           0        0.738006   -1.380650   -2.355052
     21          1           0       -1.213195   -0.718913   -2.924036
     22          6           0        0.752930   -2.885140   -0.461410
     23          1           0       -1.194651   -3.314418    0.311169
     24          6           0        1.492621   -2.067602   -1.357177
     25          1           0        1.226944   -0.812045   -3.134347
     26          1           0        1.239703   -3.472816    0.303871
     27          7           0        2.813014   -1.952320   -1.269488
     28          6           0        3.539963   -2.386579   -0.066356
     29          1           0        3.431451   -3.464349    0.082740
     30          1           0        3.132779   -1.836503    0.794905
     31          6           0        3.537481   -0.886487   -1.974546
     32          1           0        3.787432   -1.212511   -2.991623
     33          1           0        2.903440    0.003423   -2.012841
     34          7           0       -1.276698   -0.321399    0.862471
     35         16           0       -1.331381   -1.173800    2.250400
     36          8           0       -2.527484   -2.021962    2.226356
     37          8           0       -0.036452   -1.830661    2.448492
     38          6           0       -0.614280    2.692812    0.049217
     39          6           0       -0.140605    2.217194   -1.183770
     40          6           0       -0.926253    2.310737   -2.330910
     41          6           0       -2.202297    2.872617   -2.280357
     42          6           0       -2.686302    3.342808   -1.062826
     43          6           0       -1.894346    3.253478    0.082370
     44          1           0        0.822535    1.720730   -1.213537
     45          1           0       -0.531938    1.947745   -3.277824
     46          1           0       -2.808468    2.949017   -3.178882
     47          1           0       -3.677196    3.784765   -1.002375
     48          1           0       -2.280241    3.635149    1.025764
     49          8           0        0.695255    1.549853    1.900394
     50          1           0       -0.292835   -0.070785    0.552574
     51          6           0        1.835140    0.826517    1.258483
     52          8           0        1.432376    0.220001    0.160420
     53          8           0        2.224366   -0.058031    2.293560
     54          1           0        1.530397   -0.741932    2.317480
     55          6           0        3.035414    1.802100    1.136534
     56          1           0        2.990686    2.517962    1.967269
     57          1           0        3.930504    1.195038    1.321808
     58          6           0        0.227713    2.739695    1.327910
     59          1           0       -0.401924    3.202596    2.099003
     60          1           0        1.061088    3.438169    1.160400
     61          6           0       -1.499189    0.033228    3.544601
     62          1           0       -0.635433    0.697534    3.452249
     63          1           0       -2.436355    0.570490    3.389023
     64          1           0       -1.508312   -0.499472    4.496957
     65          6           0        3.210416    2.534680   -0.190544
     66          1           0        3.200572    1.802452   -1.006589
     67          1           0        2.368883    3.204899   -0.392033
     68          6           0        4.509504    3.337528   -0.225083
     69          1           0        4.641362    3.858560   -1.178441
     70          1           0        4.524436    4.089209    0.573236
     71          1           0        5.377050    2.687205   -0.072370
     72          6           0        4.975501   -1.972545   -0.369795
     73          1           0        5.568987   -1.866341    0.540075
     74          1           0        5.455606   -2.715951   -1.015595
     75          6           0        4.782759   -0.649341   -1.114780
     76          1           0        4.563354    0.141157   -0.392732
     77          1           0        5.648224   -0.351258   -1.710289
 ---------------------------------------------------------------------

 SCF Done:  E(RM062X) =  -1991.35868592     A.U. after   14 cycles

 The electronic state is 1-A.
 Alpha  occ. eigenvalues --  -90.14141 -19.61751 -19.61729 -19.58716 -19.56712
 Alpha  occ. eigenvalues --  -19.51308 -14.85158 -14.80451 -14.75672 -10.63414
 Alpha  occ. eigenvalues --  -10.62784 -10.62276 -10.62165 -10.60708 -10.59311
 Alpha  occ. eigenvalues --  -10.58516 -10.57988 -10.57927 -10.57140 -10.56891
 Alpha  occ. eigenvalues --  -10.56680 -10.55646 -10.55592 -10.55124 -10.54877
 Alpha  occ. eigenvalues --  -10.54829 -10.54769 -10.54713 -10.54562 -10.54389
 Alpha  occ. eigenvalues --  -10.54312 -10.54296 -10.53085 -10.51554 -10.51484
 Alpha  occ. eigenvalues --  -10.49725  -8.45118  -6.37334  -6.37312  -6.37155
 Alpha  occ. eigenvalues --   -1.21966  -1.13604  -1.13504  -1.10222  -1.09348
 Alpha  occ. eigenvalues --   -1.05889  -1.01695  -0.99352  -0.95727  -0.94981
 Alpha  occ. eigenvalues --   -0.93482  -0.90288  -0.88751  -0.85888  -0.85808
 Alpha  occ. eigenvalues --   -0.84818  -0.84694  -0.84256  -0.83050  -0.82672
 Alpha  occ. eigenvalues --   -0.76660  -0.76310  -0.75833  -0.74384  -0.72767
 Alpha  occ. eigenvalues --   -0.71626  -0.68327  -0.68244  -0.67938  -0.67189
 Alpha  occ. eigenvalues --   -0.66758  -0.65222  -0.64872  -0.63523  -0.60567
 Alpha  occ. eigenvalues --   -0.60403  -0.59788  -0.58969  -0.57808  -0.57582
 Alpha  occ. eigenvalues --   -0.57164  -0.56433  -0.55766  -0.55168  -0.54186
 Alpha  occ. eigenvalues --   -0.53525  -0.52649  -0.52437  -0.52409  -0.51902
 Alpha  occ. eigenvalues --   -0.51545  -0.51040  -0.50820  -0.49867  -0.49576
 Alpha  occ. eigenvalues --   -0.49158  -0.48824  -0.48203  -0.48129  -0.48038
 Alpha  occ. eigenvalues --   -0.47657  -0.47453  -0.46904  -0.46448  -0.46100
 Alpha  occ. eigenvalues --   -0.44889  -0.44724  -0.44131  -0.43878  -0.43257
 Alpha  occ. eigenvalues --   -0.42493  -0.42115  -0.41433  -0.41358  -0.41138
 Alpha  occ. eigenvalues --   -0.40893  -0.40470  -0.40002  -0.39833  -0.39357
 Alpha  occ. eigenvalues --   -0.39262  -0.39060  -0.38451  -0.37932  -0.37588
 Alpha  occ. eigenvalues --   -0.37382  -0.36733  -0.36572  -0.35717  -0.34896
 Alpha  occ. eigenvalues --   -0.34379  -0.33941  -0.31684  -0.31064  -0.29764
 Alpha  occ. eigenvalues --   -0.28886  -0.28596  -0.27630  -0.24905  -0.24454
 Alpha virt. eigenvalues --   -0.01505   0.00419   0.03564   0.03769   0.10148
 Alpha virt. eigenvalues --    0.11017   0.11649   0.12167   0.13190   0.13530
 Alpha virt. eigenvalues --    0.14203   0.14634   0.14765   0.15248   0.15599

 Mulliken charges:
               1
     1  C   -0.306222
     2  C   -0.307054
     3  C   -0.309482
     4  C   -0.059897
     5  C    0.057006
     6  C   -0.311731
     7  H    0.173871
     8  H    0.162777
     9  H    0.165391
    10  H    0.151057
    11  H    0.163183
    12  H    0.208809
    13  H    0.172850
    14  H    0.193010
    15  H    0.163583
    16  H    0.154102
    17  N   -0.430762
    18  C    0.067857
    19  C    0.063597
    20  C   -0.202565
    21  H    0.206648
    22  C   -0.208944
    23  H    0.245543
    24  C    0.446657
    25  H    0.191714
    26  H    0.211620
    27  N   -0.526687
    28  C   -0.172042
    29  H    0.169778
    30  H    0.231413
    31  C   -0.154528
    32  H    0.166517
    33  H    0.204040
    34  N   -0.816431
    35  S    1.253809
    36  O   -0.612271
    37  O   -0.607455
    38  C    0.086398
    39  C   -0.182416
    40  C   -0.189484
    41  C   -0.170917
    42  C   -0.163698
    43  C   -0.212175
    44  H    0.208861
    45  H    0.140738
    46  H    0.154857
    47  H    0.158568
    48  H    0.152492
    49  O   -0.549545
    50  H    0.449045
    51  C    0.725909
    52  O   -0.723011
    53  O   -0.718154
    54  H    0.445267
    55  C   -0.338501
    56  H    0.149331
    57  H    0.150643
    58  C   -0.092473
    59  H    0.140508
    60  H    0.147514
    61  C   -0.663140
    62  H    0.272679
    63  H    0.196259
    64  H    0.217478
    65  C   -0.293973
    66  H    0.137901
    67  H    0.146764
    68  C   -0.474072
    69  H    0.149126
    70  H    0.154819
    71  H    0.144611
    72  C   -0.331829
    73  H    0.187392
    74  H    0.163134
    75  C   -0.343507
    76  H    0.196580
    77  H    0.171261
 Sum of Mulliken charges =  -0.00000

 Dipole moment (field-independent basis, Debye):
    X=             -2.4435    Y=             -1.8660    Z=             -6.3987  Tot=              7.0990
 Quadrupole moment (field-independent basis, Debye-Ang):
   XX=           -205.4722   YY=           -223.0631   ZZ=           -219.7819
   XY=            -12.2507   XZ=             -5.3854   YZ=             10.0079

 Normal termination of Gaussian 16 at Thu Feb  7 15:30:44 2019.
