 Gaussian 16, Revision A.03,
 Gaussian 16:  ES64L-G16RevA.03 25-Dec-2016

 ------------------------------------------
 #p M062X/6-31G* em=gd3 force int=ultrafine
 ------------------------------------------

 -----
 Title
 -----
 Symbolic Z-matrix:
 Charge =  0 Multiplicity = 1

                         Standard orientation:
 ---------------------------------------------------------------------
 Center     Atomic      Atomic             Coordinates (Angstroms)
 Number     Number       Type             X           Y           Z
 ---------------------------------------------------------------------
      1          6           0       -4.841782    0.492729   -0.520087
      2          6           0       -5.003034   -0.776689   -1.361469
      3          6           0       -3.656878   -1.213898   -1.951623
      4          6           0       -2.669535   -1.457546   -0.814618
      5          6           0       -2.476950   -0.173074    0.028152
      6          6           0       -3.818875    0.294313    0.601826
      7          1           0       -3.762033   -2.117914   -2.560948
      8          1           0       -5.404802   -1.584950   -0.736358
      9          1           0       -5.720811   -0.611529   -2.171058
     10          1           0       -4.504215    1.312927   -1.168497
     11          1           0       -5.807142    0.791444   -0.099029
     12          1           0       -3.055574   -2.248292   -0.163331
     13          1           0       -2.126415    0.604472   -0.663283
     14          1           0       -4.184243   -0.443538    1.324747
     15          1           0       -3.647074    1.236803    1.134664
     16          1           0       -3.293066   -0.408145   -2.603336
     17          7           0       -1.334560   -1.915569   -1.257746
     18          6           0       -0.655890   -1.239713   -2.221042
     19          6           0       -0.635148   -2.729131   -0.424358
     20          6           0        0.695733   -1.328160   -2.359579
     21          1           0       -1.248430   -0.597968   -2.860106
     22          6           0        0.718420   -2.858432   -0.491221
     23          1           0       -1.216720   -3.233401    0.339610
     24          6           0        1.461285   -2.072748   -1.413988
     25          1           0        1.177803   -0.762729   -3.146004
     26          1           0        1.206341   -3.479002    0.247048
     27          7           0        2.790550   -2.039685   -1.392456
     28          6           0        3.533613   -2.567348   -0.237647
     29          1           0        3.399688   -3.649589   -0.153107
     30          1           0        3.160677   -2.064898    0.665881
     31          6           0        3.555480   -0.985112   -2.080478
     32          1           0        3.813796   -1.313445   -3.094912
     33          1           0        2.959723   -0.070254   -2.112841
     34          7           0       -1.388743   -0.318199    0.978343
     35         16           0       -1.426151   -1.220369    2.332052
     36          8           0       -2.631122   -2.053224    2.282219
     37          8           0       -0.134839   -1.895364    2.485871
     38          6           0       -0.605232    2.719360   -0.064570
     39          6           0       -0.074584    2.085458   -1.195914
     40          6           0       -0.748747    2.150751   -2.414517
     41          6           0       -1.972350    2.813221   -2.519137
     42          6           0       -2.515117    3.426269   -1.391387
     43          6           0       -1.829895    3.381796   -0.177509
     44          1           0        0.843802    1.507717   -1.085035
     45          1           0       -0.314185    1.679512   -3.294111
     46          1           0       -2.495423    2.857445   -3.470301
     47          1           0       -3.469821    3.940867   -1.456768
     48          1           0       -2.257547    3.862631    0.700062
     49          8           0        0.559884    1.379461    1.620164
     50          1           0       -0.564081    0.341591    0.987123
     51          6           0        2.095246    0.710210    1.194660
     52          8           0        1.987043    0.175079    0.053915
     53          8           0        2.210229   -0.135017    2.291723
     54          1           0        1.540546   -0.833925    2.169727
     55          6           0        3.078542    1.867464    1.388391
     56          1           0        2.754017    2.501690    2.221101
     57          1           0        4.024460    1.408048    1.707153
     58          6           0        0.123042    2.654061    1.272248
     59          1           0       -0.571854    3.019729    2.048755
     60          1           0        0.956452    3.375843    1.260278
     61          6           0       -1.524545   -0.040749    3.661253
     62          1           0       -0.666759    0.625587    3.521983
     63          1           0       -2.470012    0.497563    3.578105
     64          1           0       -1.460791   -0.583638    4.605413
     65          6           0        3.323831    2.684006    0.122926
     66          1           0        3.692061    2.013820   -0.662469
     67          1           0        2.381772    3.091364   -0.262079
     68          6           0        4.316347    3.819752    0.357975
     69          1           0        4.507665    4.387002   -0.558064
     70          1           0        3.938681    4.518799    1.112449
     71          1           0        5.274828    3.432494    0.721285
     72          6           0        4.973042   -2.163396   -0.535277
     73          1           0        5.579292   -2.124359    0.371638
     74          1           0        5.431777   -2.874631   -1.231201
     75          6           0        4.789579   -0.796107   -1.195604
     76          1           0        4.540610   -0.056715   -0.429172
     77          1           0        5.661547   -0.459555   -1.760395
 ---------------------------------------------------------------------

 SCF Done:  E(RM062X) =  -1991.35532546     A.U. after   15 cycles

 The electronic state is 1-A.
 Alpha  occ. eigenvalues --  -90.14334 -19.62085 -19.61754 -19.58228 -19.57009
 Alpha  occ. eigenvalues --  -19.52460 -14.85220 -14.80206 -14.75680 -10.63268
 Alpha  occ. eigenvalues --  -10.62972 -10.62667 -10.62166 -10.60946 -10.59563
 Alpha  occ. eigenvalues --  -10.58054 -10.57964 -10.57844 -10.57051 -10.56764
 Alpha  occ. eigenvalues --  -10.56366 -10.56136 -10.55743 -10.54948 -10.54937
 Alpha  occ. eigenvalues --  -10.54921 -10.54872 -10.54767 -10.54505 -10.54440
 Alpha  occ. eigenvalues --  -10.54355 -10.54113 -10.53068 -10.51292 -10.51249
 Alpha  occ. eigenvalues --  -10.50148  -8.45322  -6.37545  -6.37493  -6.37377
 Alpha  occ. eigenvalues --   -1.22148  -1.13476  -1.13127  -1.10348  -1.09037
 Alpha  occ. eigenvalues --   -1.05408  -1.02143  -1.01818  -0.95754  -0.94985
 Alpha  occ. eigenvalues --   -0.93476  -0.90165  -0.88645  -0.86266  -0.85763
 Alpha  occ. eigenvalues --   -0.84767  -0.84470  -0.83972  -0.83162  -0.82812
 Alpha  occ. eigenvalues --   -0.76617  -0.76439  -0.75653  -0.73338  -0.72997
 Alpha  occ. eigenvalues --   -0.71675  -0.68234  -0.68033  -0.67837  -0.67331
 Alpha  occ. eigenvalues --   -0.66479  -0.65326  -0.64720  -0.63358  -0.60477
 Alpha  occ. eigenvalues --   -0.60316  -0.59820  -0.59420  -0.57849  -0.57710
 Alpha  occ. eigenvalues --   -0.57192  -0.56337  -0.55477  -0.54769  -0.54162
 Alpha  occ. eigenvalues --   -0.53480  -0.52836  -0.52507  -0.52223  -0.51763
 Alpha  occ. eigenvalues --   -0.51534  -0.51066  -0.50378  -0.50028  -0.49576
 Alpha  occ. eigenvalues --   -0.49141  -0.48907  -0.48397  -0.48146  -0.48075
 Alpha  occ. eigenvalues --   -0.47750  -0.47431  -0.46985  -0.46689  -0.45995
 Alpha  occ. eigenvalues --   -0.45225  -0.45105  -0.44600  -0.44118  -0.43191
 Alpha  occ. eigenvalues --   -0.42465  -0.42290  -0.41239  -0.41131  -0.40907
 Alpha  occ. eigenvalues --   -0.40503  -0.40467  -0.40144  -0.40010  -0.39487
 Alpha  occ. eigenvalues --   -0.39168  -0.38940  -0.38609  -0.38097  -0.37751
 Alpha  occ. eigenvalues --   -0.37447  -0.36797  -0.36558  -0.35816  -0.35090
 Alpha  occ. eigenvalues --   -0.34831  -0.34262  -0.32277  -0.30813  -0.29781
 Alpha  occ. eigenvalues --   -0.28737  -0.28450  -0.27882  -0.25607  -0.24726
 Alpha virt. eigenvalues --   -0.01310   0.00507   0.03361   0.03850   0.10217
 Alpha virt. eigenvalues --    0.10734   0.11472   0.12394   0.13269   0.13362
 Alpha virt. eigenvalues --    0.14164   0.14446   0.15188   0.15497   0.15592

 Mulliken charges:
               1
     1  C   -0.306754
     2  C   -0.307560
     3  C   -0.311611
     4  C   -0.062303
     5  C    0.066837
     6  C   -0.306877
     7  H    0.174486
     8  H    0.162988
     9  H    0.166228
    10  H    0.152380
    11  H    0.164211
    12  H    0.208676
    13  H    0.173098
    14  H    0.190363
    15  H    0.160167
    16  H    0.156774
    17  N   -0.435494
    18  C    0.084561
    19  C    0.085164
    20  C   -0.214290
    21  H    0.203850
    22  C   -0.223511
    23  H    0.246109
    24  C    0.445180
    25  H    0.192238
    26  H    0.209447
    27  N   -0.519475
    28  C   -0.162416
    29  H    0.169178
    30  H    0.215924
    31  C   -0.145760
    32  H    0.162454
    33  H    0.204264
    34  N   -0.816935
    35  S    1.238705
    36  O   -0.606899
    37  O   -0.598883
    38  C    0.051261
    39  C   -0.198830
    40  C   -0.192134
    41  C   -0.173627
    42  C   -0.164297
    43  C   -0.205782
    44  H    0.230937
    45  H    0.139304
    46  H    0.155248
    47  H    0.159086
    48  H    0.154285
    49  O   -0.634332
    50  H    0.454149
    51  C    0.700025
    52  O   -0.647329
    53  O   -0.687635
    54  H    0.441820
    55  C   -0.338096
    56  H    0.154438
    57  H    0.150614
    58  C   -0.064376
    59  H    0.118821
    60  H    0.144731
    61  C   -0.668525
    62  H    0.265658
    63  H    0.199692
    64  H    0.221984
    65  C   -0.287059
    66  H    0.143078
    67  H    0.145939
    68  C   -0.475927
    69  H    0.149986
    70  H    0.150874
    71  H    0.148670
    72  C   -0.334731
    73  H    0.184474
    74  H    0.161823
    75  C   -0.337805
    76  H    0.202839
    77  H    0.166234
 Sum of Mulliken charges =  -0.00000

 Dipole moment (field-independent basis, Debye):
    X=             -2.7731    Y=             -1.6877    Z=             -5.8473  Tot=              6.6880
 Quadrupole moment (field-independent basis, Debye-Ang):
   XX=           -206.1938   YY=           -223.7932   ZZ=           -218.3993
   XY=            -13.3017   XZ=             -4.0370   YZ=             10.6695

 Normal termination of Gaussian 16 at Thu Feb  7 18:27:47 2019.
