 Gaussian 16, Revision A.03,
 Gaussian 16:  ES64L-G16RevA.03 25-Dec-2016

 ------------------------------------------
 #p M062X/6-31G* em=gd3 force int=ultrafine
 ------------------------------------------

 -----
 Title
 -----
 Symbolic Z-matrix:
 Charge =  0 Multiplicity = 1

                         Standard orientation:
 ---------------------------------------------------------------------
 Center     Atomic      Atomic             Coordinates (Angstroms)
 Number     Number       Type             X           Y           Z
 ---------------------------------------------------------------------
      1          6           0       -4.781311    0.406597   -0.553698
      2          6           0       -4.961871   -0.878970   -1.366527
      3          6           0       -3.630912   -1.326928   -1.983204
      4          6           0       -2.621194   -1.538873   -0.861292
      5          6           0       -2.394079   -0.226752   -0.066164
      6          6           0       -3.721056    0.243407    0.540083
      7          1           0       -3.749983   -2.246928   -2.565471
      8          1           0       -5.344238   -1.676572   -0.716077
      9          1           0       -5.702360   -0.729717   -2.158571
     10          1           0       -4.476251    1.216612   -1.228979
     11          1           0       -5.734711    0.703798   -0.104854
     12          1           0       -3.000018   -2.301200   -0.173618
     13          1           0       -2.077423    0.533810   -0.791350
     14          1           0       -4.062014   -0.482025    1.286378
     15          1           0       -3.545044    1.198415    1.046483
     16          1           0       -3.284351   -0.538808   -2.665352
     17          7           0       -1.295767   -2.017954   -1.305713
     18          6           0       -0.611087   -1.336305   -2.262212
     19          6           0       -0.597713   -2.804027   -0.442739
     20          6           0        0.745630   -1.380998   -2.355234
     21          1           0       -1.205770   -0.723314   -2.928280
     22          6           0        0.760233   -2.880549   -0.457726
     23          1           0       -1.187879   -3.312224    0.312203
     24          6           0        1.499842   -2.064055   -1.354448
     25          1           0        1.234642   -0.813786   -3.135478
     26          1           0        1.246856   -3.465688    0.309601
     27          7           0        2.819991   -1.946615   -1.265181
     28          6           0        3.545735   -2.374652   -0.058981
     29          1           0        3.438778   -3.451975    0.094370
     30          1           0        3.136128   -1.821847    0.799442
     31          6           0        3.544202   -0.883420   -1.974196
     32          1           0        3.795313   -1.213696   -2.989612
     33          1           0        2.909520    0.005831   -2.017788
     34          7           0       -1.278423   -0.322199    0.861875
     35         16           0       -1.335645   -1.174755    2.249376
     36          8           0       -2.530076   -2.025264    2.222498
     37          8           0       -0.040179   -1.829539    2.451259
     38          6           0       -0.619009    2.694779    0.053260
     39          6           0       -0.145006    2.222629   -1.180851
     40          6           0       -0.931663    2.316015   -2.327252
     41          6           0       -2.209190    2.874290   -2.274696
     42          6           0       -2.693660    3.340736   -1.056001
     43          6           0       -1.900589    3.251600    0.088418
     44          1           0        0.819744    1.729234   -1.212726
     45          1           0       -0.537038    1.955967   -3.275188
     46          1           0       -2.816129    2.950805   -3.172666
     47          1           0       -3.685551    3.779883   -0.994245
     48          1           0       -2.286667    3.630729    1.032574
     49          8           0        0.691400    1.552582    1.903966
     50          1           0       -0.293430   -0.070905    0.553547
     51          6           0        1.829173    0.827727    1.260813
     52          8           0        1.424119    0.221088    0.163239
     53          8           0        2.218821   -0.056717    2.295698
     54          1           0        1.524650   -0.740155    2.321031
     55          6           0        3.031566    1.801063    1.136178
     56          1           0        2.989967    2.517454    1.966632
     57          1           0        3.925215    1.192041    1.320734
     58          6           0        0.224592    2.742324    1.330821
     59          1           0       -0.403481    3.206714    2.102121
     60          1           0        1.058770    3.439291    1.161502
     61          6           0       -1.508862    0.032231    3.542891
     62          1           0       -0.646361    0.698359    3.452098
     63          1           0       -2.446858    0.567441    3.385094
     64          1           0       -1.518807   -0.500042    4.495465
     65          6           0        3.206647    2.532153   -0.191725
     66          1           0        3.180736    1.800048   -1.007823
     67          1           0        2.372369    3.215247   -0.386283
     68          6           0        4.516274    3.317688   -0.235173
     69          1           0        4.646973    3.838561   -1.188770
     70          1           0        4.546606    4.067097    0.563097
     71          1           0        5.376236    2.654432   -0.090917
     72          6           0        4.981256   -1.959981   -0.361870
     73          1           0        5.572670   -1.847862    0.548641
     74          1           0        5.463904   -2.706181   -1.002510
     75          6           0        4.788577   -0.641071   -1.114535
     76          1           0        4.568642    0.153584   -0.397298
     77          1           0        5.654510   -0.346118   -1.710947
 ---------------------------------------------------------------------

 SCF Done:  E(RM062X) =  -1991.35873966     A.U. after   14 cycles

 The electronic state is 1-A.
 Alpha  occ. eigenvalues --  -90.14126 -19.61738 -19.61716 -19.58724 -19.56720
 Alpha  occ. eigenvalues --  -19.51328 -14.85153 -14.80451 -14.75638 -10.63410
 Alpha  occ. eigenvalues --  -10.62781 -10.62292 -10.62152 -10.60699 -10.59295
 Alpha  occ. eigenvalues --  -10.58541 -10.57981 -10.57921 -10.57130 -10.56886
 Alpha  occ. eigenvalues --  -10.56674 -10.55639 -10.55587 -10.55131 -10.54896
 Alpha  occ. eigenvalues --  -10.54821 -10.54759 -10.54703 -10.54554 -10.54381
 Alpha  occ. eigenvalues --  -10.54304 -10.54282 -10.53090 -10.51570 -10.51511
 Alpha  occ. eigenvalues --  -10.49740  -8.45103  -6.37319  -6.37297  -6.37140
 Alpha  occ. eigenvalues --   -1.21952  -1.13611  -1.13502  -1.10206  -1.09348
 Alpha  occ. eigenvalues --   -1.05899  -1.01678  -0.99360  -0.95720  -0.94978
 Alpha  occ. eigenvalues --   -0.93477  -0.90281  -0.88750  -0.85884  -0.85815
 Alpha  occ. eigenvalues --   -0.84815  -0.84687  -0.84264  -0.83047  -0.82661
 Alpha  occ. eigenvalues --   -0.76656  -0.76322  -0.75833  -0.74388  -0.72756
 Alpha  occ. eigenvalues --   -0.71616  -0.68327  -0.68251  -0.67935  -0.67182
 Alpha  occ. eigenvalues --   -0.66758  -0.65217  -0.64868  -0.63521  -0.60571
 Alpha  occ. eigenvalues --   -0.60402  -0.59791  -0.58949  -0.57810  -0.57578
 Alpha  occ. eigenvalues --   -0.57158  -0.56430  -0.55757  -0.55165  -0.54182
 Alpha  occ. eigenvalues --   -0.53515  -0.52646  -0.52428  -0.52398  -0.51900
 Alpha  occ. eigenvalues --   -0.51541  -0.51047  -0.50844  -0.49862  -0.49582
 Alpha  occ. eigenvalues --   -0.49157  -0.48820  -0.48204  -0.48124  -0.48049
 Alpha  occ. eigenvalues --   -0.47651  -0.47449  -0.46902  -0.46454  -0.46099
 Alpha  occ. eigenvalues --   -0.44893  -0.44718  -0.44126  -0.43881  -0.43255
 Alpha  occ. eigenvalues --   -0.42485  -0.42111  -0.41448  -0.41374  -0.41146
 Alpha  occ. eigenvalues --   -0.40891  -0.40465  -0.40002  -0.39833  -0.39376
 Alpha  occ. eigenvalues --   -0.39258  -0.39056  -0.38453  -0.37922  -0.37585
 Alpha  occ. eigenvalues --   -0.37380  -0.36731  -0.36572  -0.35709  -0.34890
 Alpha  occ. eigenvalues --   -0.34375  -0.33930  -0.31691  -0.31051  -0.29758
 Alpha  occ. eigenvalues --   -0.28885  -0.28593  -0.27623  -0.24924  -0.24470
 Alpha virt. eigenvalues --   -0.01495   0.00428   0.03571   0.03777   0.10153
 Alpha virt. eigenvalues --    0.11026   0.11645   0.12155   0.13196   0.13536
 Alpha virt. eigenvalues --    0.14200   0.14644   0.14772   0.15258   0.15600

 Mulliken charges:
               1
     1  C   -0.306201
     2  C   -0.307022
     3  C   -0.309580
     4  C   -0.059808
     5  C    0.057094
     6  C   -0.311785
     7  H    0.173834
     8  H    0.162765
     9  H    0.165347
    10  H    0.151022
    11  H    0.163132
    12  H    0.208742
    13  H    0.172790
    14  H    0.193047
    15  H    0.163558
    16  H    0.154051
    17  N   -0.430892
    18  C    0.068092
    19  C    0.063646
    20  C   -0.202875
    21  H    0.206698
    22  C   -0.208913
    23  H    0.245615
    24  C    0.447058
    25  H    0.191593
    26  H    0.211635
    27  N   -0.526939
    28  C   -0.172420
    29  H    0.169804
    30  H    0.231940
    31  C   -0.154438
    32  H    0.166780
    33  H    0.203485
    34  N   -0.816630
    35  S    1.253837
    36  O   -0.612311
    37  O   -0.607748
    38  C    0.086923
    39  C   -0.181833
    40  C   -0.189384
    41  C   -0.170849
    42  C   -0.163681
    43  C   -0.212197
    44  H    0.208053
    45  H    0.140775
    46  H    0.154823
    47  H    0.158547
    48  H    0.152478
    49  O   -0.549262
    50  H    0.449269
    51  C    0.726220
    52  O   -0.723383
    53  O   -0.718082
    54  H    0.445413
    55  C   -0.338371
    56  H    0.149491
    57  H    0.150487
    58  C   -0.092655
    59  H    0.140651
    60  H    0.147318
    61  C   -0.663070
    62  H    0.272422
    63  H    0.196259
    64  H    0.217441
    65  C   -0.294390
    66  H    0.138559
    67  H    0.146607
    68  C   -0.474219
    69  H    0.149176
    70  H    0.155342
    71  H    0.144306
    72  C   -0.331805
    73  H    0.187441
    74  H    0.163203
    75  C   -0.343567
    76  H    0.196208
    77  H    0.171332
 Sum of Mulliken charges =  -0.00000

 Dipole moment (field-independent basis, Debye):
    X=             -2.3982    Y=             -1.8520    Z=             -6.4126  Tot=              7.0924
 Quadrupole moment (field-independent basis, Debye-Ang):
   XX=           -205.3827   YY=           -223.1201   ZZ=           -219.7646
   XY=            -12.2101   XZ=             -5.3842   YZ=             10.0086

 Normal termination of Gaussian 16 at Thu Feb  7 15:43:45 2019.
