 Gaussian 16, Revision A.03,
 Gaussian 16:  ES64L-G16RevA.03 25-Dec-2016

 ------------------------------------------
 #p M062X/6-31G* em=gd3 force int=ultrafine
 ------------------------------------------

 -----
 Title
 -----
 Symbolic Z-matrix:
 Charge =  0 Multiplicity = 1

                         Standard orientation:
 ---------------------------------------------------------------------
 Center     Atomic      Atomic             Coordinates (Angstroms)
 Number     Number       Type             X           Y           Z
 ---------------------------------------------------------------------
      1          6           0       -4.865341    0.503870   -0.557604
      2          6           0       -5.036288   -0.795784   -1.349492
      3          6           0       -3.695499   -1.261753   -1.929569
      4          6           0       -2.702363   -1.462852   -0.789425
      5          6           0       -2.501361   -0.146114   -0.000901
      6          6           0       -3.836852    0.345103    0.565536
      7          1           0       -3.807243   -2.189510   -2.500662
      8          1           0       -5.437996   -1.577744   -0.691781
      9          1           0       -5.758101   -0.658191   -2.160563
     10          1           0       -4.530175    1.298161   -1.238498
     11          1           0       -5.826911    0.820983   -0.141438
     12          1           0       -3.088218   -2.224127   -0.103583
     13          1           0       -2.153841    0.605412   -0.721502
     14          1           0       -4.200601   -0.364753    1.316070
     15          1           0       -3.659628    1.305197    1.063105
     16          1           0       -3.331740   -0.485716   -2.616355
     17          7           0       -1.372109   -1.942589   -1.219034
     18          6           0       -0.686253   -1.293986   -2.198272
     19          6           0       -0.679010   -2.739057   -0.362722
     20          6           0        0.664611   -1.390851   -2.328013
     21          1           0       -1.274191   -0.666994   -2.856340
     22          6           0        0.673533   -2.872516   -0.418567
     23          1           0       -1.265726   -3.220546    0.411901
     24          6           0        1.423488   -2.109192   -1.355460
     25          1           0        1.153146   -0.846877   -3.125360
     26          1           0        1.156909   -3.473766    0.338305
     27          7           0        2.750428   -2.078092   -1.326035
     28          6           0        3.486312   -2.572702   -0.151294
     29          1           0        3.343985   -3.650523   -0.031589
     30          1           0        3.115470   -2.032610    0.731477
     31          6           0        3.519776   -1.042373   -2.036546
     32          1           0        3.779614   -1.395123   -3.042470
     33          1           0        2.924048   -0.128376   -2.087759
     34          7           0       -1.415437   -0.239855    0.958888
     35         16           0       -1.425113   -1.097679    2.347557
     36          8           0       -2.660654   -1.883621    2.357025
     37          8           0       -0.152943   -1.806970    2.483781
     38          6           0       -0.526860    2.664526   -0.075435
     39          6           0       -0.045589    2.071071   -1.250924
     40          6           0       -0.787216    2.146174   -2.429748
     41          6           0       -2.022286    2.793601   -2.458660
     42          6           0       -2.512626    3.375588   -1.291250
     43          6           0       -1.765953    3.310963   -0.115101
     44          1           0        0.886607    1.509883   -1.197744
     45          1           0       -0.391103    1.698453   -3.339193
     46          1           0       -2.593747    2.850717   -3.380993
     47          1           0       -3.473664    3.882499   -1.296422
     48          1           0       -2.155042    3.771172    0.791053
     49          8           0        0.708287    1.399024    1.684473
     50          1           0       -0.503373    0.204492    0.771318
     51          6           0        2.028391    0.759311    1.172889
     52          8           0        1.834841    0.187736    0.028729
     53          8           0        2.286491   -0.127136    2.245972
     54          1           0        1.581625   -0.797819    2.193640
     55          6           0        3.137951    1.830292    1.250480
     56          1           0        2.938405    2.515426    2.084367
     57          1           0        4.058072    1.294725    1.517894
     58          6           0        0.267328    2.647451    1.228970
     59          1           0       -0.390032    3.053591    2.012249
     60          1           0        1.105119    3.354407    1.143454
     61          6           0       -1.457955    0.123887    3.638841
     62          1           0       -0.568992    0.742851    3.482702
     63          1           0       -2.377769    0.702717    3.542692
     64          1           0       -1.420248   -0.399341    4.595675
     65          6           0        3.377067    2.600148   -0.046217
     66          1           0        3.640827    1.887270   -0.835891
     67          1           0        2.456567    3.084619   -0.392750
     68          6           0        4.475444    3.649616    0.109071
     69          1           0        4.666967    4.180854   -0.828445
     70          1           0        4.199875    4.393449    0.865100
     71          1           0        5.414510    3.187466    0.433599
     72          6           0        4.928632   -2.188897   -0.459516
     73          1           0        5.534690   -2.129921    0.446384
     74          1           0        5.382551   -2.920636   -1.137342
     75          6           0        4.751570   -0.837385   -1.152520
     76          1           0        4.500908   -0.082553   -0.401893
     77          1           0        5.625978   -0.513686   -1.721172
 ---------------------------------------------------------------------

 SCF Done:  E(RM062X) =  -1991.35582922     A.U. after   15 cycles

 The electronic state is 1-A.
 Alpha  occ. eigenvalues --  -90.14806 -19.62393 -19.62168 -19.58617 -19.56829
 Alpha  occ. eigenvalues --  -19.50466 -14.85220 -14.80067 -14.76721 -10.63184
 Alpha  occ. eigenvalues --  -10.62646 -10.62157 -10.62062 -10.61094 -10.59900
 Alpha  occ. eigenvalues --  -10.57803 -10.57787 -10.57619 -10.57025 -10.57007
 Alpha  occ. eigenvalues --  -10.56910 -10.56293 -10.55889 -10.55098 -10.55088
 Alpha  occ. eigenvalues --  -10.55004 -10.54843 -10.54688 -10.54667 -10.54645
 Alpha  occ. eigenvalues --  -10.54464 -10.54105 -10.53082 -10.51089 -10.50979
 Alpha  occ. eigenvalues --  -10.49471  -8.45774  -6.38002  -6.37954  -6.37817
 Alpha  occ. eigenvalues --   -1.22588  -1.13504  -1.12899  -1.10803  -1.08915
 Alpha  occ. eigenvalues --   -1.05835  -1.02522  -0.99616  -0.95864  -0.95190
 Alpha  occ. eigenvalues --   -0.93499  -0.90161  -0.88599  -0.86537  -0.85323
 Alpha  occ. eigenvalues --   -0.84937  -0.84868  -0.83735  -0.83267  -0.83090
 Alpha  occ. eigenvalues --   -0.76597  -0.75928  -0.75586  -0.74279  -0.73290
 Alpha  occ. eigenvalues --   -0.71786  -0.68223  -0.68168  -0.67768  -0.67508
 Alpha  occ. eigenvalues --   -0.66458  -0.65495  -0.64844  -0.63376  -0.60493
 Alpha  occ. eigenvalues --   -0.60360  -0.59961  -0.59465  -0.57905  -0.57694
 Alpha  occ. eigenvalues --   -0.57190  -0.56436  -0.55730  -0.55120  -0.54373
 Alpha  occ. eigenvalues --   -0.53582  -0.53087  -0.52695  -0.52486  -0.52138
 Alpha  occ. eigenvalues --   -0.51702  -0.50804  -0.50178  -0.49914  -0.49342
 Alpha  occ. eigenvalues --   -0.49221  -0.48978  -0.48444  -0.48152  -0.47982
 Alpha  occ. eigenvalues --   -0.47738  -0.47623  -0.47170  -0.46146  -0.45816
 Alpha  occ. eigenvalues --   -0.45205  -0.45099  -0.44372  -0.43923  -0.43221
 Alpha  occ. eigenvalues --   -0.42503  -0.42305  -0.41141  -0.40923  -0.40799
 Alpha  occ. eigenvalues --   -0.40671  -0.40427  -0.40066  -0.39838  -0.39385
 Alpha  occ. eigenvalues --   -0.39199  -0.38903  -0.38599  -0.38348  -0.37846
 Alpha  occ. eigenvalues --   -0.37357  -0.36503  -0.36424  -0.36083  -0.35001
 Alpha  occ. eigenvalues --   -0.34492  -0.34267  -0.31771  -0.31347  -0.29989
 Alpha  occ. eigenvalues --   -0.29197  -0.28812  -0.27749  -0.24095  -0.23878
 Alpha virt. eigenvalues --   -0.01259   0.00543   0.03241   0.03569   0.10134
 Alpha virt. eigenvalues --    0.10587   0.11324   0.12550   0.13168   0.13281
 Alpha virt. eigenvalues --    0.14119   0.14431   0.14977   0.15489   0.15553

 Mulliken charges:
               1
     1  C   -0.306387
     2  C   -0.307818
     3  C   -0.310830
     4  C   -0.059544
     5  C    0.062478
     6  C   -0.307370
     7  H    0.175586
     8  H    0.163249
     9  H    0.166856
    10  H    0.150954
    11  H    0.165064
    12  H    0.206802
    13  H    0.175365
    14  H    0.193545
    15  H    0.161713
    16  H    0.156178
    17  N   -0.437505
    18  C    0.076995
    19  C    0.076725
    20  C   -0.207462
    21  H    0.203425
    22  C   -0.218726
    23  H    0.243063
    24  C    0.449804
    25  H    0.192163
    26  H    0.209987
    27  N   -0.519000
    28  C   -0.166892
    29  H    0.166941
    30  H    0.223135
    31  C   -0.146617
    32  H    0.160575
    33  H    0.205739
    34  N   -0.804471
    35  S    1.240361
    36  O   -0.603197
    37  O   -0.591596
    38  C    0.053377
    39  C   -0.196104
    40  C   -0.192101
    41  C   -0.172297
    42  C   -0.165505
    43  C   -0.205399
    44  H    0.231655
    45  H    0.141729
    46  H    0.156022
    47  H    0.159576
    48  H    0.153746
    49  O   -0.587924
    50  H    0.445097
    51  C    0.717412
    52  O   -0.700048
    53  O   -0.706310
    54  H    0.432097
    55  C   -0.340669
    56  H    0.143354
    57  H    0.150410
    58  C   -0.082632
    59  H    0.132715
    60  H    0.155523
    61  C   -0.665464
    62  H    0.270682
    63  H    0.200047
    64  H    0.222164
    65  C   -0.285499
    66  H    0.141233
    67  H    0.140374
    68  C   -0.474425
    69  H    0.147886
    70  H    0.149761
    71  H    0.147952
    72  C   -0.333780
    73  H    0.184879
    74  H    0.160002
    75  C   -0.338852
    76  H    0.204400
    77  H    0.165630
 Sum of Mulliken charges =  -0.00000

 Dipole moment (field-independent basis, Debye):
    X=             -3.6142    Y=             -1.7394    Z=             -5.7570  Tot=              7.0165
 Quadrupole moment (field-independent basis, Debye-Ang):
   XX=           -208.5860   YY=           -222.0498   ZZ=           -218.6456
   XY=            -13.2641   XZ=             -4.1284   YZ=             10.6820

 Normal termination of Gaussian 16 at Thu Feb  7 10:50:03 2019.
