 Gaussian 16, Revision A.03,
 Gaussian 16:  ES64L-G16RevA.03 25-Dec-2016

 ------------------------------------------
 #p M062X/6-31G* em=gd3 force int=ultrafine
 ------------------------------------------

 -----
 Title
 -----
 Symbolic Z-matrix:
 Charge =  0 Multiplicity = 1

                         Standard orientation:
 ---------------------------------------------------------------------
 Center     Atomic      Atomic             Coordinates (Angstroms)
 Number     Number       Type             X           Y           Z
 ---------------------------------------------------------------------
      1          6           0       -4.870159    0.112318   -0.434933
      2          6           0       -4.927611   -1.178081   -1.258122
      3          6           0       -3.551335   -1.512602   -1.845986
      4          6           0       -2.545066   -1.636336   -0.706316
      5          6           0       -2.433491   -0.307679    0.095213
      6          6           0       -3.816749    0.026763    0.673832
      7          1           0       -3.584602   -2.439334   -2.430373
      8          1           0       -5.258495   -2.007677   -0.619615
      9          1           0       -5.659245   -1.086217   -2.067670
     10          1           0       -4.614480    0.948370   -1.101149
     11          1           0       -5.855950    0.330458   -0.010480
     12          1           0       -2.864014   -2.429593   -0.024691
     13          1           0       -2.213776    0.466143   -0.655556
     14          1           0       -4.095649   -0.737385    1.410530
     15          1           0       -3.736504    0.986475    1.198344
     16          1           0       -3.263044   -0.697039   -2.523463
     17          7           0       -1.183356   -2.016649   -1.148921
     18          6           0       -0.566998   -1.343129   -2.147368
     19          6           0       -0.432413   -2.765830   -0.307472
     20          6           0        0.786662   -1.377814   -2.322170
     21          1           0       -1.206983   -0.750973   -2.788719
     22          6           0        0.926561   -2.845125   -0.415373
     23          1           0       -0.970749   -3.255807    0.496740
     24          6           0        1.604084   -2.067662   -1.384404
     25          1           0        1.221227   -0.822111   -3.142622
     26          1           0        1.459521   -3.415916    0.332029
     27          7           0        2.940780   -1.974046   -1.398762
     28          6           0        3.732779   -2.458799   -0.261276
     29          1           0        3.677245   -3.548822   -0.186835
     30          1           0        3.338018   -2.016381    0.664133
     31          6           0        3.638325   -0.902676   -2.125955
     32          1           0        3.899259   -1.239845   -3.136578
     33          1           0        2.996720   -0.019630   -2.186359
     34          7           0       -1.306607   -0.271666    1.003867
     35         16           0       -1.270402   -1.200208    2.280979
     36          8           0       -2.273511   -2.288315    2.267176
     37          8           0        0.126084   -1.658790    2.516528
     38          6           0       -1.068181    2.860802   -0.166200
     39          6           0       -0.371286    2.177230   -1.168970
     40          6           0       -0.925088    2.058546   -2.441709
     41          6           0       -2.189411    2.579529   -2.719417
     42          6           0       -2.897637    3.232902   -1.713427
     43          6           0       -2.333537    3.374167   -0.447518
     44          1           0        0.580360    1.704279   -0.932131
     45          1           0       -0.367100    1.549722   -3.224596
     46          1           0       -2.620846    2.477817   -3.710853
     47          1           0       -3.888549    3.631446   -1.910537
     48          1           0       -2.886348    3.880592    0.340673
     49          8           0        0.241133    1.893016    1.634431
     50          1           0       -0.286552    1.088319    1.349606
     51          6           0        2.439054    0.643985    1.206496
     52          8           0        2.110167    0.207355    0.116923
     53          8           0        2.225687    0.008894    2.347668
     54          1           0        1.518607   -0.685354    2.238833
     55          6           0        3.193160    1.939718    1.393164
     56          1           0        2.702772    2.475094    2.211726
     57          1           0        4.209652    1.698725    1.735568
     58          6           0       -0.467241    3.022910    1.214207
     59          1           0       -1.268262    3.293233    1.922192
     60          1           0        0.243755    3.862175    1.207506
     61          6           0       -1.629774   -0.155190    3.689681
     62          1           0       -0.916854    0.672458    3.661205
     63          1           0       -2.652550    0.213294    3.589406
     64          1           0       -1.515225   -0.739819    4.603421
     65          6           0        3.227579    2.783800    0.125467
     66          1           0        3.653719    2.195542   -0.696313
     67          1           0        2.197130    3.011583   -0.169910
     68          6           0        4.016725    4.076362    0.309667
     69          1           0        4.042969    4.661382   -0.614231
     70          1           0        3.568700    4.700970    1.089607
     71          1           0        5.050966    3.868771    0.605280
     72          6           0        5.141285   -1.955905   -0.565483
     73          1           0        5.738750   -1.848021    0.341998
     74          1           0        5.654579   -2.652794   -1.235858
     75          6           0        4.878695   -0.623921   -1.272300
     76          1           0        4.628274    0.142272   -0.533186
     77          1           0        5.724199   -0.273517   -1.867802
 ---------------------------------------------------------------------

 SCF Done:  E(RM062X) =  -1991.38838627     A.U. after   15 cycles

 The electronic state is 1-A.
 Alpha  occ. eigenvalues --  -90.10338 -19.63386 -19.60093 -19.59181 -19.58542
 Alpha  occ. eigenvalues --  -19.58337 -14.84795 -14.80489 -14.69365 -10.65498
 Alpha  occ. eigenvalues --  -10.63222 -10.62405 -10.61503 -10.59128 -10.59071
 Alpha  occ. eigenvalues --  -10.59037 -10.57822 -10.57415 -10.56804 -10.56661
 Alpha  occ. eigenvalues --  -10.56020 -10.55739 -10.55536 -10.54982 -10.54923
 Alpha  occ. eigenvalues --  -10.54874 -10.54598 -10.54560 -10.54501 -10.53803
 Alpha  occ. eigenvalues --  -10.53654 -10.53566 -10.53208 -10.53144 -10.52650
 Alpha  occ. eigenvalues --  -10.52620  -8.41301  -6.33539  -6.33447  -6.33366
 Alpha  occ. eigenvalues --   -1.19129  -1.17858  -1.12931  -1.10230  -1.09860
 Alpha  occ. eigenvalues --   -1.09127  -1.06127  -0.97528  -0.95274  -0.94784
 Alpha  occ. eigenvalues --   -0.92183  -0.89845  -0.88574  -0.88117  -0.85026
 Alpha  occ. eigenvalues --   -0.84931  -0.83655  -0.83507  -0.83301  -0.80163
 Alpha  occ. eigenvalues --   -0.79188  -0.76341  -0.75647  -0.74678  -0.70936
 Alpha  occ. eigenvalues --   -0.70199  -0.69129  -0.68705  -0.68352  -0.68024
 Alpha  occ. eigenvalues --   -0.65839  -0.64728  -0.63933  -0.63429  -0.61610
 Alpha  occ. eigenvalues --   -0.60260  -0.59383  -0.59002  -0.58350  -0.56162
 Alpha  occ. eigenvalues --   -0.55454  -0.55175  -0.55072  -0.54128  -0.53708
 Alpha  occ. eigenvalues --   -0.53441  -0.53067  -0.52449  -0.51950  -0.51707
 Alpha  occ. eigenvalues --   -0.51121  -0.50981  -0.50610  -0.50121  -0.49831
 Alpha  occ. eigenvalues --   -0.49587  -0.49516  -0.48817  -0.48339  -0.47990
 Alpha  occ. eigenvalues --   -0.47792  -0.47175  -0.46993  -0.46976  -0.45915
 Alpha  occ. eigenvalues --   -0.45768  -0.45234  -0.43945  -0.43651  -0.43427
 Alpha  occ. eigenvalues --   -0.42779  -0.42538  -0.42219  -0.41968  -0.41887
 Alpha  occ. eigenvalues --   -0.41159  -0.40870  -0.40551  -0.39905  -0.39544
 Alpha  occ. eigenvalues --   -0.39360  -0.39228  -0.38827  -0.38387  -0.37910
 Alpha  occ. eigenvalues --   -0.37312  -0.36216  -0.35842  -0.35348  -0.35123
 Alpha  occ. eigenvalues --   -0.34367  -0.33091  -0.32056  -0.31689  -0.31496
 Alpha  occ. eigenvalues --   -0.29870  -0.28878  -0.28316  -0.27432  -0.25384
 Alpha virt. eigenvalues --   -0.01026   0.00658   0.03256   0.03777   0.09047
 Alpha virt. eigenvalues --    0.10162   0.10906   0.11812   0.12974   0.13524
 Alpha virt. eigenvalues --    0.13870   0.14270   0.15046   0.15483   0.15788

 Mulliken charges:
               1
     1  C   -0.303917
     2  C   -0.304175
     3  C   -0.309628
     4  C   -0.073258
     5  C    0.063190
     6  C   -0.305065
     7  H    0.166178
     8  H    0.160964
     9  H    0.159127
    10  H    0.146032
    11  H    0.156723
    12  H    0.212469
    13  H    0.141402
    14  H    0.179316
    15  H    0.149777
    16  H    0.150364
    17  N   -0.424187
    18  C    0.099559
    19  C    0.083996
    20  C   -0.227593
    21  H    0.204859
    22  C   -0.226648
    23  H    0.263994
    24  C    0.428010
    25  H    0.188067
    26  H    0.207197
    27  N   -0.528496
    28  C   -0.157945
    29  H    0.178350
    30  H    0.199151
    31  C   -0.146791
    32  H    0.169571
    33  H    0.195394
    34  N   -0.756675
    35  S    1.249552
    36  O   -0.646067
    37  O   -0.670187
    38  C    0.048723
    39  C   -0.176794
    40  C   -0.187355
    41  C   -0.169766
    42  C   -0.161813
    43  C   -0.198343
    44  H    0.204233
    45  H    0.139143
    46  H    0.156450
    47  H    0.161913
    48  H    0.157215
    49  O   -0.713756
    50  H    0.482337
    51  C    0.650564
    52  O   -0.522619
    53  O   -0.646081
    54  H    0.485618
    55  C   -0.368877
    56  H    0.201411
    57  H    0.164446
    58  C   -0.065630
    59  H    0.127923
    60  H    0.155025
    61  C   -0.657820
    62  H    0.221002
    63  H    0.187668
    64  H    0.207516
    65  C   -0.287609
    66  H    0.144191
    67  H    0.164375
    68  C   -0.480330
    69  H    0.158716
    70  H    0.158436
    71  H    0.150729
    72  C   -0.337194
    73  H    0.184281
    74  H    0.169984
    75  C   -0.335838
    76  H    0.182158
    77  H    0.173155
 Sum of Mulliken charges =  -0.00000

 Dipole moment (field-independent basis, Debye):
    X=              1.5400    Y=             -0.3459    Z=             -6.5635  Tot=              6.7506
 Quadrupole moment (field-independent basis, Debye-Ang):
   XX=           -198.5032   YY=           -222.8226   ZZ=           -222.1487
   XY=            -11.8623   XZ=             -0.8333   YZ=             12.4806

 Normal termination of Gaussian 16 at Thu Feb  7 23:54:17 2019.
