 Gaussian 16, Revision A.03,
 Gaussian 16:  ES64L-G16RevA.03 25-Dec-2016

 ------------------------------------------
 #p M062X/6-31G* em=gd3 force int=ultrafine
 ------------------------------------------

 -----
 Title
 -----
 Symbolic Z-matrix:
 Charge =  0 Multiplicity = 1

                         Standard orientation:
 ---------------------------------------------------------------------
 Center     Atomic      Atomic             Coordinates (Angstroms)
 Number     Number       Type             X           Y           Z
 ---------------------------------------------------------------------
      1          6           0       -4.858500    0.324082   -0.483812
      2          6           0       -4.983071   -0.954581   -1.317632
      3          6           0       -3.625606   -1.356079   -1.908553
      4          6           0       -2.630651   -1.554496   -0.769745
      5          6           0       -2.461869   -0.254568    0.065267
      6          6           0       -3.824397    0.164873    0.634638
      7          1           0       -3.708451   -2.266591   -2.512806
      8          1           0       -5.356935   -1.770067   -0.684833
      9          1           0       -5.708525   -0.818346   -2.126415
     10          1           0       -4.546692    1.148530   -1.140769
     11          1           0       -5.833722    0.598123   -0.067513
     12          1           0       -2.982469   -2.352687   -0.108504
     13          1           0       -2.181797    0.519922   -0.665516
     14          1           0       -4.159469   -0.578021    1.368656
     15          1           0       -3.682529    1.117022    1.160149
     16          1           0       -3.290749   -0.543889   -2.568519
     17          7           0       -1.277958   -1.970102   -1.214702
     18          6           0       -0.630852   -1.290106   -2.190483
     19          6           0       -0.550142   -2.740284   -0.371118
     20          6           0        0.724724   -1.346770   -2.345364
     21          1           0       -1.246733   -0.670081   -2.829046
     22          6           0        0.809040   -2.845453   -0.461532
     23          1           0       -1.107375   -3.234273    0.417648
     24          6           0        1.517280   -2.069283   -1.410056
     25          1           0        1.181257   -0.779316   -3.145828
     26          1           0        1.318295   -3.435135    0.287688
     27          7           0        2.856773   -2.002766   -1.405978
     28          6           0        3.620023   -2.500040   -0.252743
     29          1           0        3.534386   -3.586866   -0.168670
     30          1           0        3.227002   -2.037367    0.663402
     31          6           0        3.585154   -0.931198   -2.106208
     32          1           0        3.854436   -1.256682   -3.118013
     33          1           0        2.962334   -0.034598   -2.161019
     34          7           0       -1.344812   -0.317932    0.975693
     35         16           0       -1.354691   -1.209614    2.283059
     36          8           0       -2.452248   -2.199374    2.318767
     37          8           0        0.010455   -1.765395    2.485261
     38          6           0       -0.817184    2.795525   -0.092904
     39          6           0       -0.216423    2.137013   -1.173952
     40          6           0       -0.848374    2.126932   -2.416181
     41          6           0       -2.094682    2.731971   -2.586639
     42          6           0       -2.706120    3.359998   -1.504705
     43          6           0       -2.063453    3.391370   -0.270232
     44          1           0        0.721660    1.604028   -1.027139
     45          1           0       -0.367986    1.639426   -3.262233
     46          1           0       -2.587792    2.713888   -3.553941
     47          1           0       -3.681365    3.823969   -1.615177
     48          1           0       -2.536021    3.874278    0.581544
     49          8           0        0.298612    1.594582    1.692664
     50          1           0       -0.310645    0.875009    1.308829
     51          6           0        2.431729    0.572128    1.164832
     52          8           0        2.094530    0.165732    0.067952
     53          8           0        2.279457   -0.128700    2.284033
     54          1           0        1.542537   -0.785601    2.178469
     55          6           0        3.155968    1.881913    1.378406
     56          1           0        2.615985    2.419097    2.165377
     57          1           0        4.150694    1.655518    1.784984
     58          6           0       -0.165422    2.837459    1.272233
     59          1           0       -0.883349    3.261129    1.992537
     60          1           0        0.700767    3.516416    1.253387
     61          6           0       -1.560769   -0.079883    3.659582
     62          1           0       -0.762621    0.660159    3.563212
     63          1           0       -2.538794    0.398680    3.579662
     64          1           0       -1.470621   -0.633024    4.595209
     65          6           0        3.275661    2.724357    0.110353
     66          1           0        3.666186    2.104769   -0.705494
     67          1           0        2.280089    3.046861   -0.216261
     68          6           0        4.173384    3.941974    0.317160
     69          1           0        4.295244    4.512243   -0.608333
     70          1           0        3.758692    4.616396    1.073867
     71          1           0        5.169136    3.636897    0.656806
     72          6           0        5.044097   -2.034958   -0.541549
     73          1           0        5.640036   -1.955837    0.369940
     74          1           0        5.539517   -2.736761   -1.220116
     75          6           0        4.820212   -0.688387   -1.232769
     76          1           0        4.578319    0.071663   -0.484820
     77          1           0        5.680118   -0.345255   -1.811625
 ---------------------------------------------------------------------

 SCF Done:  E(RM062X) =  -1991.38080001     A.U. after   15 cycles

 The electronic state is 1-A.
 Alpha  occ. eigenvalues --  -90.10217 -19.63690 -19.60233 -19.58538 -19.58288
 Alpha  occ. eigenvalues --  -19.58258 -14.84804 -14.80412 -14.69260 -10.65919
 Alpha  occ. eigenvalues --  -10.63219 -10.62446 -10.61647 -10.59274 -10.59056
 Alpha  occ. eigenvalues --  -10.58871 -10.57832 -10.57303 -10.56772 -10.56726
 Alpha  occ. eigenvalues --  -10.55922 -10.55685 -10.55639 -10.55112 -10.55041
 Alpha  occ. eigenvalues --  -10.54949 -10.54655 -10.54618 -10.54520 -10.54009
 Alpha  occ. eigenvalues --  -10.53623 -10.53604 -10.53574 -10.53259 -10.52963
 Alpha  occ. eigenvalues --  -10.52620  -8.41167  -6.33403  -6.33314  -6.33235
 Alpha  occ. eigenvalues --   -1.19331  -1.17664  -1.12927  -1.10115  -1.09986
 Alpha  occ. eigenvalues --   -1.09046  -1.05969  -0.97576  -0.95390  -0.94737
 Alpha  occ. eigenvalues --   -0.92198  -0.89816  -0.88567  -0.88424  -0.85110
 Alpha  occ. eigenvalues --   -0.84802  -0.83734  -0.83564  -0.83275  -0.79979
 Alpha  occ. eigenvalues --   -0.79473  -0.76308  -0.75604  -0.74638  -0.70958
 Alpha  occ. eigenvalues --   -0.70304  -0.69412  -0.68653  -0.68351  -0.68120
 Alpha  occ. eigenvalues --   -0.66028  -0.64769  -0.63920  -0.63545  -0.61611
 Alpha  occ. eigenvalues --   -0.60291  -0.59381  -0.59135  -0.58359  -0.56176
 Alpha  occ. eigenvalues --   -0.55786  -0.55338  -0.55178  -0.54543  -0.53929
 Alpha  occ. eigenvalues --   -0.53481  -0.53053  -0.52657  -0.51813  -0.51634
 Alpha  occ. eigenvalues --   -0.51061  -0.50942  -0.50631  -0.49993  -0.49854
 Alpha  occ. eigenvalues --   -0.49761  -0.49518  -0.48761  -0.48314  -0.48051
 Alpha  occ. eigenvalues --   -0.47691  -0.47271  -0.47099  -0.47004  -0.45784
 Alpha  occ. eigenvalues --   -0.45495  -0.45149  -0.43986  -0.43751  -0.43493
 Alpha  occ. eigenvalues --   -0.43117  -0.42843  -0.42137  -0.41991  -0.41797
 Alpha  occ. eigenvalues --   -0.41245  -0.40933  -0.40515  -0.39896  -0.39678
 Alpha  occ. eigenvalues --   -0.39425  -0.39380  -0.39172  -0.38400  -0.38125
 Alpha  occ. eigenvalues --   -0.37435  -0.36310  -0.35836  -0.35329  -0.35155
 Alpha  occ. eigenvalues --   -0.34202  -0.32947  -0.31949  -0.31705  -0.31136
 Alpha  occ. eigenvalues --   -0.29992  -0.28747  -0.28342  -0.27274  -0.25349
 Alpha virt. eigenvalues --   -0.01083   0.00688   0.03091   0.03659   0.08757
 Alpha virt. eigenvalues --    0.10146   0.10973   0.11768   0.12971   0.13473
 Alpha virt. eigenvalues --    0.13745   0.14317   0.15005   0.15433   0.15870

 Mulliken charges:
               1
     1  C   -0.303798
     2  C   -0.304550
     3  C   -0.309803
     4  C   -0.070504
     5  C    0.070028
     6  C   -0.304837
     7  H    0.167218
     8  H    0.161653
     9  H    0.159357
    10  H    0.144554
    11  H    0.157261
    12  H    0.208141
    13  H    0.140069
    14  H    0.182742
    15  H    0.149988
    16  H    0.149791
    17  N   -0.424578
    18  C    0.096897
    19  C    0.094581
    20  C   -0.226450
    21  H    0.204442
    22  C   -0.227982
    23  H    0.257781
    24  C    0.426100
    25  H    0.187364
    26  H    0.207941
    27  N   -0.525847
    28  C   -0.159322
    29  H    0.178058
    30  H    0.197843
    31  C   -0.145225
    32  H    0.169491
    33  H    0.193621
    34  N   -0.774385
    35  S    1.244245
    36  O   -0.635453
    37  O   -0.667157
    38  C    0.052586
    39  C   -0.177174
    40  C   -0.188846
    41  C   -0.169563
    42  C   -0.160295
    43  C   -0.199960
    44  H    0.203755
    45  H    0.140061
    46  H    0.157416
    47  H    0.162602
    48  H    0.158944
    49  O   -0.718103
    50  H    0.486807
    51  C    0.668776
    52  O   -0.520768
    53  O   -0.646535
    54  H    0.481317
    55  C   -0.375593
    56  H    0.201717
    57  H    0.168092
    58  C   -0.062685
    59  H    0.125871
    60  H    0.141443
    61  C   -0.665968
    62  H    0.233153
    63  H    0.184487
    64  H    0.205236
    65  C   -0.291714
    66  H    0.147640
    67  H    0.162562
    68  C   -0.480716
    69  H    0.160157
    70  H    0.159038
    71  H    0.152328
    72  C   -0.335552
    73  H    0.184132
    74  H    0.169436
    75  C   -0.335347
    76  H    0.179419
    77  H    0.172570
 Sum of Mulliken charges =  -0.00000

 Dipole moment (field-independent basis, Debye):
    X=              1.7320    Y=              0.2359    Z=             -6.7946  Tot=              7.0159
 Quadrupole moment (field-independent basis, Debye-Ang):
   XX=           -200.5403   YY=           -222.5476   ZZ=           -222.9857
   XY=            -11.6009   XZ=              1.3104   YZ=             13.2821

 Normal termination of Gaussian 16 at Thu Feb  7 21:24:05 2019.
