 Gaussian 16, Revision A.03,
 Gaussian 16:  ES64L-G16RevA.03 25-Dec-2016

 ------------------------------------------
 #p M062X/6-31G* em=gd3 force int=ultrafine
 ------------------------------------------

 -----
 Title
 -----
 Symbolic Z-matrix:
 Charge =  0 Multiplicity = 1

                         Standard orientation:
 ---------------------------------------------------------------------
 Center     Atomic      Atomic             Coordinates (Angstroms)
 Number     Number       Type             X           Y           Z
 ---------------------------------------------------------------------
      1          6           0       -4.861592    0.024899   -0.408686
      2          6           0       -4.878840   -1.244553   -1.265679
      3          6           0       -3.493137   -1.518883   -1.862215
      4          6           0       -2.487835   -1.651988   -0.723150
      5          6           0       -2.411807   -0.343457    0.112256
      6          6           0       -3.803352   -0.055008    0.695566
      7          1           0       -3.498000   -2.425865   -2.477529
      8          1           0       -5.181321   -2.101160   -0.649032
      9          1           0       -5.614504   -1.154781   -2.071646
     10          1           0       -4.636512    0.886401   -1.053030
     11          1           0       -5.852511    0.198115    0.024554
     12          1           0       -2.789570   -2.471435   -0.065680
     13          1           0       -2.207629    0.451961   -0.619441
     14          1           0       -4.061295   -0.840239    1.417524
     15          1           0       -3.747545    0.896028    1.239509
     16          1           0       -3.226750   -0.672284   -2.510179
     17          7           0       -1.116314   -1.986502   -1.171437
     18          6           0       -0.514052   -1.268556   -2.146862
     19          6           0       -0.352387   -2.752861   -0.357725
     20          6           0        0.839012   -1.279974   -2.328823
     21          1           0       -1.164242   -0.659677   -2.761812
     22          6           0        1.006775   -2.812874   -0.476007
     23          1           0       -0.880900   -3.275151    0.432515
     24          6           0        1.669119   -1.997393   -1.424244
     25          1           0        1.263139   -0.689466   -3.130209
     26          1           0        1.551801   -3.403906    0.246631
     27          7           0        3.004709   -1.895331   -1.451533
     28          6           0        3.819015   -2.432266   -0.354989
     29          1           0        3.763424   -3.524681   -0.329940
     30          1           0        3.444263   -2.032423    0.597742
     31          6           0        3.688216   -0.792633   -2.143906
     32          1           0        3.935316   -1.086447   -3.171606
     33          1           0        3.043506    0.089997   -2.157396
     34          7           0       -1.290600   -0.302958    1.029708
     35         16           0       -1.250573   -1.272279    2.275586
     36          8           0       -2.229490   -2.380376    2.214637
     37          8           0        0.151165   -1.712911    2.515067
     38          6           0       -1.240799    2.829468   -0.175884
     39          6           0       -0.444916    2.212109   -1.145275
     40          6           0       -0.905676    2.100469   -2.456041
     41          6           0       -2.170591    2.569842   -2.808229
     42          6           0       -2.972630    3.170338   -1.839027
     43          6           0       -2.504694    3.300998   -0.533878
     44          1           0        0.510092    1.779148   -0.853610
     45          1           0       -0.272937    1.636047   -3.209286
     46          1           0       -2.529346    2.472628   -3.828674
     47          1           0       -3.963290    3.533395   -2.097456
     48          1           0       -3.134857    3.762028    0.224182
     49          8           0        0.165614    1.965310    1.608194
     50          1           0       -0.268340    1.098302    1.365722
     51          6           0        2.429643    0.669057    1.285445
     52          8           0        2.162906    0.220231    0.183105
     53          8           0        2.141364    0.055841    2.419858
     54          1           0        1.478470   -0.676504    2.278132
     55          6           0        3.180508    1.962062    1.501321
     56          1           0        2.723759    2.463078    2.359187
     57          1           0        4.211062    1.708758    1.790444
     58          6           0       -0.750552    2.959698    1.252675
     59          1           0       -1.623177    2.972631    1.925423
     60          1           0       -0.242407    3.926108    1.377871
     61          6           0       -1.652714   -0.287411    3.715880
     62          1           0       -0.964038    0.560943    3.727858
     63          1           0       -2.684749    0.055055    3.617069
     64          1           0       -1.532207   -0.901425    4.609482
     65          6           0        3.165755    2.857155    0.269442
     66          1           0        3.578180    2.309313   -0.586622
     67          1           0        2.121941    3.077281    0.020262
     68          6           0        3.938207    4.154204    0.489076
     69          1           0        3.915830    4.787071   -0.402905
     70          1           0        3.509123    4.727610    1.317462
     71          1           0        4.987416    3.954389    0.733401
     72          6           0        5.220649   -1.915070   -0.666782
     73          1           0        5.842159   -1.856075    0.228899
     74          1           0        5.714812   -2.576095   -1.386447
     75          6           0        4.939834   -0.548617   -1.296699
     76          1           0        4.693425    0.175453   -0.514233
     77          1           0        5.773584   -0.161402   -1.885911
 ---------------------------------------------------------------------

 SCF Done:  E(RM062X) =  -1991.39075498     A.U. after   15 cycles

 The electronic state is 1-A.
 Alpha  occ. eigenvalues --  -90.10408 -19.63412 -19.60130 -19.59368 -19.58646
 Alpha  occ. eigenvalues --  -19.58385 -14.84820 -14.80543 -14.69449 -10.65451
 Alpha  occ. eigenvalues --  -10.63248 -10.62375 -10.61541 -10.59170 -10.59154
 Alpha  occ. eigenvalues --  -10.59016 -10.57810 -10.57413 -10.56866 -10.56649
 Alpha  occ. eigenvalues --  -10.56101 -10.55787 -10.55478 -10.54968 -10.54923
 Alpha  occ. eigenvalues --  -10.54858 -10.54572 -10.54532 -10.54488 -10.53816
 Alpha  occ. eigenvalues --  -10.53728 -10.53559 -10.53111 -10.52890 -10.52656
 Alpha  occ. eigenvalues --  -10.52476  -8.41375  -6.33613  -6.33520  -6.33440
 Alpha  occ. eigenvalues --   -1.19149  -1.17950  -1.12954  -1.10415  -1.09861
 Alpha  occ. eigenvalues --   -1.09194  -1.06218  -0.97572  -0.95246  -0.94842
 Alpha  occ. eigenvalues --   -0.92197  -0.89862  -0.88610  -0.87967  -0.85027
 Alpha  occ. eigenvalues --   -0.84975  -0.83652  -0.83508  -0.83303  -0.80231
 Alpha  occ. eigenvalues --   -0.79068  -0.76376  -0.75676  -0.74678  -0.70954
 Alpha  occ. eigenvalues --   -0.70201  -0.69026  -0.68755  -0.68373  -0.67981
 Alpha  occ. eigenvalues --   -0.65714  -0.64726  -0.63967  -0.63442  -0.61672
 Alpha  occ. eigenvalues --   -0.60289  -0.59415  -0.58938  -0.58381  -0.56178
 Alpha  occ. eigenvalues --   -0.55508  -0.55159  -0.55076  -0.53991  -0.53661
 Alpha  occ. eigenvalues --   -0.53434  -0.53087  -0.52319  -0.51988  -0.51733
 Alpha  occ. eigenvalues --   -0.51184  -0.51023  -0.50613  -0.50299  -0.49835
 Alpha  occ. eigenvalues --   -0.49638  -0.49406  -0.48859  -0.48380  -0.48027
 Alpha  occ. eigenvalues --   -0.47762  -0.47172  -0.46967  -0.46848  -0.45959
 Alpha  occ. eigenvalues --   -0.45893  -0.45259  -0.43977  -0.43653  -0.43427
 Alpha  occ. eigenvalues --   -0.42760  -0.42431  -0.42294  -0.41928  -0.41850
 Alpha  occ. eigenvalues --   -0.41165  -0.40812  -0.40617  -0.39933  -0.39517
 Alpha  occ. eigenvalues --   -0.39383  -0.39168  -0.38683  -0.38375  -0.37770
 Alpha  occ. eigenvalues --   -0.37407  -0.36311  -0.35957  -0.35398  -0.35108
 Alpha  occ. eigenvalues --   -0.34433  -0.33177  -0.32142  -0.31684  -0.31521
 Alpha  occ. eigenvalues --   -0.29822  -0.28876  -0.28331  -0.27590  -0.25468
 Alpha virt. eigenvalues --   -0.01023   0.00643   0.03349   0.03834   0.09083
 Alpha virt. eigenvalues --    0.10098   0.10976   0.11700   0.13007   0.13374
 Alpha virt. eigenvalues --    0.13762   0.14166   0.15273   0.15577   0.15730

 Mulliken charges:
               1
     1  C   -0.304018
     2  C   -0.304226
     3  C   -0.309844
     4  C   -0.073653
     5  C    0.061745
     6  C   -0.305539
     7  H    0.165741
     8  H    0.160892
     9  H    0.159242
    10  H    0.146915
    11  H    0.156618
    12  H    0.213317
    13  H    0.141209
    14  H    0.180360
    15  H    0.148088
    16  H    0.151729
    17  N   -0.424752
    18  C    0.100773
    19  C    0.084837
    20  C   -0.228257
    21  H    0.206144
    22  C   -0.227236
    23  H    0.263815
    24  C    0.428878
    25  H    0.188318
    26  H    0.206619
    27  N   -0.530036
    28  C   -0.156097
    29  H    0.178438
    30  H    0.198701
    31  C   -0.147491
    32  H    0.169440
    33  H    0.196843
    34  N   -0.754714
    35  S    1.248509
    36  O   -0.646920
    37  O   -0.671250
    38  C    0.048589
    39  C   -0.176877
    40  C   -0.187018
    41  C   -0.170320
    42  C   -0.162836
    43  C   -0.196840
    44  H    0.199603
    45  H    0.140192
    46  H    0.156564
    47  H    0.161724
    48  H    0.155878
    49  O   -0.707977
    50  H    0.479251
    51  C    0.640178
    52  O   -0.524092
    53  O   -0.642488
    54  H    0.485507
    55  C   -0.366248
    56  H    0.199109
    57  H    0.163876
    58  C   -0.070850
    59  H    0.129855
    60  H    0.163109
    61  C   -0.654804
    62  H    0.217546
    63  H    0.188250
    64  H    0.208396
    65  C   -0.286747
    66  H    0.142642
    67  H    0.170302
    68  C   -0.480611
    69  H    0.158111
    70  H    0.158937
    71  H    0.149088
    72  C   -0.337551
    73  H    0.183700
    74  H    0.170119
    75  C   -0.335572
    76  H    0.183705
    77  H    0.173462
 Sum of Mulliken charges =  -0.00000

 Dipole moment (field-independent basis, Debye):
    X=              1.6010    Y=             -0.4174    Z=             -6.4686  Tot=              6.6768
 Quadrupole moment (field-independent basis, Debye-Ang):
   XX=           -197.4046   YY=           -224.2209   ZZ=           -221.2859
   XY=            -12.3288   XZ=             -1.7628   YZ=             12.1279

 Normal termination of Gaussian 16 at Fri Feb  8 01:59:00 2019.
