 Gaussian 16, Revision A.03,
 Gaussian 16:  ES64L-G16RevA.03 25-Dec-2016

 ------------------------------------------
 #p M062X/6-31G* em=gd3 force int=ultrafine
 ------------------------------------------

 -----
 Title
 -----
 Symbolic Z-matrix:
 Charge =  0 Multiplicity = 1

                         Standard orientation:
 ---------------------------------------------------------------------
 Center     Atomic      Atomic             Coordinates (Angstroms)
 Number     Number       Type             X           Y           Z
 ---------------------------------------------------------------------
      1          6           0       -4.869949    0.097221   -0.431825
      2          6           0       -4.920866   -1.191760   -1.257671
      3          6           0       -3.542978   -1.517890   -1.846391
      4          6           0       -2.536807   -1.640089   -0.706537
      5          6           0       -2.430815   -0.312456    0.097271
      6          6           0       -3.815573    0.015151    0.676253
      7          1           0       -3.571584   -2.443191   -2.433307
      8          1           0       -5.247133   -2.024439   -0.620782
      9          1           0       -5.653236   -1.102081   -2.066785
     10          1           0       -4.619319    0.936059   -1.096420
     11          1           0       -5.856654    0.308948   -0.006223
     12          1           0       -2.853343   -2.435634   -0.026581
     13          1           0       -2.213982    0.463464   -0.652110
     14          1           0       -4.090708   -0.751257    1.412039
     15          1           0       -3.739585    0.974542    1.202073
     16          1           0       -3.258307   -0.699018   -2.521429
     17          7           0       -1.173725   -2.015167   -1.149185
     18          6           0       -0.559262   -1.338366   -2.146480
     19          6           0       -0.421236   -2.765467   -0.310152
     20          6           0        0.794323   -1.370729   -2.322431
     21          1           0       -1.200689   -0.745643   -2.785874
     22          6           0        0.937743   -2.842650   -0.419378
     23          1           0       -0.958386   -3.258220    0.493142
     24          6           0        1.613347   -2.061864   -1.387088
     25          1           0        1.227542   -0.812649   -3.141972
     26          1           0        1.472240   -3.415075    0.325687
     27          7           0        2.949873   -1.966570   -1.402568
     28          6           0        3.744119   -2.454473   -0.268108
     29          1           0        3.689672   -3.544817   -0.197287
     30          1           0        3.350415   -2.015521    0.659421
     31          6           0        3.645364   -0.892488   -2.127632
     32          1           0        3.905624   -1.226630   -3.139466
     33          1           0        3.002658   -0.010038   -2.184889
     34          7           0       -1.304773   -0.273253    1.007189
     35         16           0       -1.267473   -1.206272    2.280849
     36          8           0       -2.265845   -2.298671    2.261284
     37          8           0        0.130113   -1.660575    2.518192
     38          6           0       -1.090220    2.860764   -0.168857
     39          6           0       -0.382958    2.181292   -1.166894
     40          6           0       -0.927601    2.059212   -2.443292
     41          6           0       -2.192687    2.573365   -2.729636
     42          6           0       -2.910598    3.224276   -1.728776
     43          6           0       -2.355933    3.368694   -0.459103
     44          1           0        0.569407    1.713406   -0.923247
     45          1           0       -0.361745    1.552759   -3.222039
     46          1           0       -2.617169    2.468578   -3.723743
     47          1           0       -3.901953    3.618141   -1.933052
     48          1           0       -2.916765    3.872984    0.324841
     49          8           0        0.234068    1.907036    1.628315
     50          1           0       -0.284674    1.094799    1.351005
     51          6           0        2.438627    0.648363    1.213396
     52          8           0        2.115206    0.209800    0.122880
     53          8           0        2.217065    0.017132    2.354783
     54          1           0        1.514005   -0.681052    2.243382
     55          6           0        3.193436    1.943434    1.401673
     56          1           0        2.708554    2.475673    2.225390
     57          1           0        4.212024    1.700308    1.736344
     58          6           0       -0.499317    3.023781    1.215986
     59          1           0       -1.309751    3.268260    1.922746
     60          1           0        0.191465    3.879593    1.220368
     61          6           0       -1.635203   -0.169026    3.693106
     62          1           0       -0.927677    0.663375    3.669495
     63          1           0       -2.660252    0.193105    3.592730
     64          1           0       -1.518452   -0.756741    4.604595
     65          6           0        3.220157    2.792709    0.137436
     66          1           0        3.646439    2.209732   -0.688055
     67          1           0        2.187367    3.016534   -0.152593
     68          6           0        4.003670    4.088202    0.324905
     69          1           0        4.023359    4.677982   -0.596118
     70          1           0        3.555322    4.706532    1.109635
     71          1           0        5.040088    3.884576    0.615639
     72          6           0        5.151604   -1.949238   -0.573111
     73          1           0        5.750926   -1.844388    0.333489
     74          1           0        5.664073   -2.643147   -1.247241
     75          6           0        4.886227   -0.614881   -1.274404
     76          1           0        4.635084    0.148075   -0.532096
     77          1           0        5.730501   -0.260889   -1.869526
 ---------------------------------------------------------------------

 SCF Done:  E(RM062X) =  -1991.38873102     A.U. after   15 cycles

 The electronic state is 1-A.
 Alpha  occ. eigenvalues --  -90.10346 -19.63378 -19.60089 -19.59213 -19.58557
 Alpha  occ. eigenvalues --  -19.58341 -14.84798 -14.80496 -14.69375 -10.65482
 Alpha  occ. eigenvalues --  -10.63225 -10.62403 -10.61504 -10.59133 -10.59059
 Alpha  occ. eigenvalues --  -10.59051 -10.57822 -10.57418 -10.56812 -10.56657
 Alpha  occ. eigenvalues --  -10.56029 -10.55744 -10.55527 -10.54977 -10.54920
 Alpha  occ. eigenvalues --  -10.54870 -10.54594 -10.54555 -10.54499 -10.53789
 Alpha  occ. eigenvalues --  -10.53679 -10.53563 -10.53188 -10.53111 -10.52626
 Alpha  occ. eigenvalues --  -10.52620  -8.41310  -6.33548  -6.33455  -6.33375
 Alpha  occ. eigenvalues --   -1.19124  -1.17871  -1.12934  -1.10257  -1.09855
 Alpha  occ. eigenvalues --   -1.09133  -1.06138  -0.97532  -0.95268  -0.94791
 Alpha  occ. eigenvalues --   -0.92184  -0.89848  -0.88577  -0.88095  -0.85022
 Alpha  occ. eigenvalues --   -0.84938  -0.83653  -0.83505  -0.83301  -0.80173
 Alpha  occ. eigenvalues --   -0.79169  -0.76345  -0.75651  -0.74680  -0.70937
 Alpha  occ. eigenvalues --   -0.70195  -0.69112  -0.68710  -0.68355  -0.68017
 Alpha  occ. eigenvalues --   -0.65824  -0.64727  -0.63936  -0.63427  -0.61615
 Alpha  occ. eigenvalues --   -0.60263  -0.59387  -0.58994  -0.58351  -0.56164
 Alpha  occ. eigenvalues --   -0.55450  -0.55169  -0.55067  -0.54110  -0.53698
 Alpha  occ. eigenvalues --   -0.53441  -0.53070  -0.52430  -0.51955  -0.51712
 Alpha  occ. eigenvalues --   -0.51128  -0.50985  -0.50610  -0.50136  -0.49830
 Alpha  occ. eigenvalues --   -0.49591  -0.49505  -0.48822  -0.48343  -0.47992
 Alpha  occ. eigenvalues --   -0.47789  -0.47173  -0.46980  -0.46977  -0.45923
 Alpha  occ. eigenvalues --   -0.45790  -0.45237  -0.43947  -0.43650  -0.43424
 Alpha  occ. eigenvalues --   -0.42772  -0.42511  -0.42227  -0.41955  -0.41890
 Alpha  occ. eigenvalues --   -0.41158  -0.40863  -0.40556  -0.39908  -0.39537
 Alpha  occ. eigenvalues --   -0.39362  -0.39219  -0.38805  -0.38384  -0.37891
 Alpha  occ. eigenvalues --   -0.37314  -0.36219  -0.35853  -0.35351  -0.35119
 Alpha  occ. eigenvalues --   -0.34377  -0.33101  -0.32065  -0.31701  -0.31498
 Alpha  occ. eigenvalues --   -0.29863  -0.28882  -0.28317  -0.27447  -0.25393
 Alpha virt. eigenvalues --   -0.01025   0.00655   0.03272   0.03783   0.09062
 Alpha virt. eigenvalues --    0.10158   0.10909   0.11807   0.12981   0.13510
 Alpha virt. eigenvalues --    0.13868   0.14261   0.15068   0.15486   0.15777

 Mulliken charges:
               1
     1  C   -0.303915
     2  C   -0.304178
     3  C   -0.309646
     4  C   -0.073301
     5  C    0.062865
     6  C   -0.305090
     7  H    0.166089
     8  H    0.160947
     9  H    0.159126
    10  H    0.146145
    11  H    0.156701
    12  H    0.212644
    13  H    0.141446
    14  H    0.179349
    15  H    0.149615
    16  H    0.150494
    17  N   -0.424267
    18  C    0.099763
    19  C    0.083919
    20  C   -0.227691
    21  H    0.204937
    22  C   -0.226776
    23  H    0.264137
    24  C    0.428114
    25  H    0.188120
    26  H    0.207112
    27  N   -0.528650
    28  C   -0.157834
    29  H    0.178360
    30  H    0.199239
    31  C   -0.146900
    32  H    0.169562
    33  H    0.195586
    34  N   -0.756066
    35  S    1.249540
    36  O   -0.646417
    37  O   -0.670287
    38  C    0.048677
    39  C   -0.176923
    40  C   -0.187233
    41  C   -0.169824
    42  C   -0.161923
    43  C   -0.198175
    44  H    0.203898
    45  H    0.139173
    46  H    0.156423
    47  H    0.161880
    48  H    0.157046
    49  O   -0.713120
    50  H    0.481958
    51  C    0.649303
    52  O   -0.522823
    53  O   -0.645808
    54  H    0.485684
    55  C   -0.368404
    56  H    0.201120
    57  H    0.164282
    58  C   -0.066211
    59  H    0.128081
    60  H    0.156162
    61  C   -0.657326
    62  H    0.220290
    63  H    0.187820
    64  H    0.207671
    65  C   -0.287401
    66  H    0.143946
    67  H    0.164998
    68  C   -0.480342
    69  H    0.158624
    70  H    0.158462
    71  H    0.150539
    72  C   -0.337246
    73  H    0.184225
    74  H    0.170004
    75  C   -0.335802
    76  H    0.182306
    77  H    0.173194
 Sum of Mulliken charges =  -0.00000

 Dipole moment (field-independent basis, Debye):
    X=              1.5428    Y=             -0.3651    Z=             -6.5464  Tot=              6.7356
 Quadrupole moment (field-independent basis, Debye-Ang):
   XX=           -198.3654   YY=           -222.9387   ZZ=           -222.0516
   XY=            -11.9155   XZ=             -0.9642   YZ=             12.4463

 Normal termination of Gaussian 16 at Fri Feb  8 00:07:24 2019.
