 Gaussian 16, Revision A.03,
 Gaussian 16:  ES64L-G16RevA.03 25-Dec-2016

 ------------------------------------------
 #p M062X/6-31G* em=gd3 force int=ultrafine
 ------------------------------------------

 -----
 Title
 -----
 Symbolic Z-matrix:
 Charge =  0 Multiplicity = 1

                         Standard orientation:
 ---------------------------------------------------------------------
 Center     Atomic      Atomic             Coordinates (Angstroms)
 Number     Number       Type             X           Y           Z
 ---------------------------------------------------------------------
      1          6           0       -4.839217    0.472372   -0.533885
      2          6           0       -5.030853   -0.843473   -1.294198
      3          6           0       -3.703995   -1.326743   -1.891664
      4          6           0       -2.690592   -1.501143   -0.765780
      5          6           0       -2.460683   -0.163093   -0.020260
      6          6           0       -3.782721    0.340945    0.568096
      7          1           0       -3.829506   -2.268486   -2.436438
      8          1           0       -5.420961   -1.610476   -0.612314
      9          1           0       -5.769353   -0.720406   -2.092612
     10          1           0       -4.524131    1.252015   -1.240384
     11          1           0       -5.790635    0.796769   -0.100051
     12          1           0       -3.067410   -2.238939   -0.050339
     13          1           0       -2.139032    0.569028   -0.771947
     14          1           0       -4.130666   -0.351479    1.341683
     15          1           0       -3.597337    1.312841    1.038376
     16          1           0       -3.352517   -0.569556   -2.605441
     17          7           0       -1.370329   -1.999072   -1.204409
     18          6           0       -0.690002   -1.354239   -2.190027
     19          6           0       -0.672379   -2.780441   -0.337931
     20          6           0        0.662285   -1.435903   -2.312969
     21          1           0       -1.283671   -0.739304   -2.854762
     22          6           0        0.681772   -2.898359   -0.387113
     23          1           0       -1.256110   -3.252899    0.444581
     24          6           0        1.423458   -2.129577   -1.324827
     25          1           0        1.148115   -0.894586   -3.113675
     26          1           0        1.170579   -3.480357    0.381137
     27          7           0        2.748755   -2.065916   -1.281824
     28          6           0        3.491158   -2.534730   -0.101481
     29          1           0        3.357013   -3.611251    0.036644
     30          1           0        3.119089   -1.983105    0.774124
     31          6           0        3.495131   -1.019920   -1.998603
     32          1           0        3.742309   -1.363417   -3.010857
     33          1           0        2.883875   -0.114728   -2.038798
     34          7           0       -1.345253   -0.223297    0.912474
     35         16           0       -1.362352   -1.045524    2.326613
     36          8           0       -2.596747   -1.833933    2.365659
     37          8           0       -0.090343   -1.753476    2.479703
     38          6           0       -0.534158    2.644497   -0.084244
     39          6           0       -0.060851    2.082293   -1.279762
     40          6           0       -0.825761    2.144402   -2.443902
     41          6           0       -2.077219    2.760001   -2.447380
     42          6           0       -2.558434    3.319853   -1.266284
     43          6           0       -1.789738    3.260476   -0.103692
     44          1           0        0.884123    1.547504   -1.257662
     45          1           0       -0.432945    1.712559   -3.362479
     46          1           0       -2.665769    2.810494   -3.359332
     47          1           0       -3.529391    3.807305   -1.249175
     48          1           0       -2.174819    3.707284    0.810891
     49          8           0        0.744946    1.506299    1.783870
     50          1           0       -0.387135    0.023760    0.594514
     51          6           0        1.948810    0.801128    1.199696
     52          8           0        1.622081    0.189834    0.090092
     53          8           0        2.284555   -0.071690    2.264277
     54          1           0        1.581901   -0.746196    2.262926
     55          6           0        3.119705    1.813947    1.149155
     56          1           0        3.002028    2.529046    1.973896
     57          1           0        4.029856    1.245930    1.380212
     58          6           0        0.279994    2.697429    1.212899
     59          1           0       -0.373850    3.149598    1.971275
     60          1           0        1.108544    3.407190    1.069054
     61          6           0       -1.411835    0.199620    3.593700
     62          1           0       -0.521319    0.816967    3.443710
     63          1           0       -2.329987    0.776505    3.471301
     64          1           0       -1.396852   -0.311674    4.557778
     65          6           0        3.324634    2.553083   -0.170850
     66          1           0        3.540123    1.826136   -0.963011
     67          1           0        2.408323    3.063136   -0.487439
     68          6           0        4.458350    3.572739   -0.070189
     69          1           0        4.633224    4.086165   -1.020722
     70          1           0        4.227564    4.333762    0.683827
     71          1           0        5.394738    3.089744    0.231388
     72          6           0        4.928886   -2.147991   -0.427235
     73          1           0        5.544404   -2.075709    0.471157
     74          1           0        5.378206   -2.885764   -1.101499
     75          6           0        4.740104   -0.805131   -1.134517
     76          1           0        4.508347   -0.040155   -0.388342
     77          1           0        5.605416   -0.487385   -1.720024
 ---------------------------------------------------------------------

 SCF Done:  E(RM062X) =  -1991.35706006     A.U. after   15 cycles

 The electronic state is 1-A.
 Alpha  occ. eigenvalues --  -90.14571 -19.62146 -19.62062 -19.58510 -19.56613
 Alpha  occ. eigenvalues --  -19.50732 -14.85285 -14.80305 -14.76550 -10.63354
 Alpha  occ. eigenvalues --  -10.62769 -10.62256 -10.61993 -10.60967 -10.59685
 Alpha  occ. eigenvalues --  -10.58154 -10.57947 -10.57855 -10.57165 -10.56895
 Alpha  occ. eigenvalues --  -10.56838 -10.55881 -10.55809 -10.54993 -10.54934
 Alpha  occ. eigenvalues --  -10.54908 -10.54807 -10.54653 -10.54548 -10.54512
 Alpha  occ. eigenvalues --  -10.54446 -10.54369 -10.52968 -10.51242 -10.51192
 Alpha  occ. eigenvalues --  -10.49464  -8.45545  -6.37768  -6.37734  -6.37580
 Alpha  occ. eigenvalues --   -1.22369  -1.13631  -1.13173  -1.10618  -1.09199
 Alpha  occ. eigenvalues --   -1.05708  -1.02214  -0.99165  -0.95866  -0.95024
 Alpha  occ. eigenvalues --   -0.93564  -0.90310  -0.88735  -0.86236  -0.85475
 Alpha  occ. eigenvalues --   -0.84858  -0.84792  -0.84030  -0.83086  -0.82941
 Alpha  occ. eigenvalues --   -0.76695  -0.76018  -0.75759  -0.74237  -0.73070
 Alpha  occ. eigenvalues --   -0.71779  -0.68279  -0.68143  -0.67895  -0.67418
 Alpha  occ. eigenvalues --   -0.66603  -0.65375  -0.64815  -0.63512  -0.60503
 Alpha  occ. eigenvalues --   -0.60354  -0.59655  -0.59531  -0.57735  -0.57717
 Alpha  occ. eigenvalues --   -0.57289  -0.56488  -0.55825  -0.55136  -0.54271
 Alpha  occ. eigenvalues --   -0.53613  -0.52860  -0.52617  -0.52485  -0.51968
 Alpha  occ. eigenvalues --   -0.51610  -0.50906  -0.50437  -0.49930  -0.49393
 Alpha  occ. eigenvalues --   -0.49125  -0.48973  -0.48244  -0.48122  -0.47854
 Alpha  occ. eigenvalues --   -0.47785  -0.47554  -0.47066  -0.46274  -0.46010
 Alpha  occ. eigenvalues --   -0.45041  -0.44755  -0.44267  -0.43805  -0.43277
 Alpha  occ. eigenvalues --   -0.42594  -0.42195  -0.41214  -0.41153  -0.40969
 Alpha  occ. eigenvalues --   -0.40798  -0.40556  -0.39967  -0.39787  -0.39267
 Alpha  occ. eigenvalues --   -0.39202  -0.39078  -0.38400  -0.38203  -0.37787
 Alpha  occ. eigenvalues --   -0.37301  -0.36643  -0.36433  -0.35967  -0.34957
 Alpha  occ. eigenvalues --   -0.34426  -0.34125  -0.31813  -0.31215  -0.29816
 Alpha  occ. eigenvalues --   -0.28895  -0.28610  -0.27730  -0.24286  -0.24032
 Alpha virt. eigenvalues --   -0.01443   0.00390   0.03463   0.03706   0.10118
 Alpha virt. eigenvalues --    0.10740   0.11474   0.12390   0.13159   0.13319
 Alpha virt. eigenvalues --    0.14182   0.14357   0.14741   0.15330   0.15577

 Mulliken charges:
               1
     1  C   -0.306384
     2  C   -0.307501
     3  C   -0.309863
     4  C   -0.059028
     5  C    0.055712
     6  C   -0.309891
     7  H    0.174914
     8  H    0.163083
     9  H    0.166406
    10  H    0.150786
    11  H    0.164615
    12  H    0.207581
    13  H    0.175119
    14  H    0.194991
    15  H    0.163473
    16  H    0.155581
    17  N   -0.434371
    18  C    0.070632
    19  C    0.067187
    20  C   -0.203422
    21  H    0.205359
    22  C   -0.211715
    23  H    0.243684
    24  C    0.447949
    25  H    0.192494
    26  H    0.211015
    27  N   -0.523008
    28  C   -0.168829
    29  H    0.168524
    30  H    0.225994
    31  C   -0.151305
    32  H    0.162931
    33  H    0.206346
    34  N   -0.804620
    35  S    1.248008
    36  O   -0.606418
    37  O   -0.599223
    38  C    0.072109
    39  C   -0.191459
    40  C   -0.191085
    41  C   -0.172538
    42  C   -0.164647
    43  C   -0.209579
    44  H    0.222054
    45  H    0.140291
    46  H    0.155054
    47  H    0.158567
    48  H    0.152319
    49  O   -0.562494
    50  H    0.441659
    51  C    0.719695
    52  O   -0.715996
    53  O   -0.714408
    54  H    0.437847
    55  C   -0.338321
    56  H    0.146088
    57  H    0.150195
    58  C   -0.085775
    59  H    0.136205
    60  H    0.150027
    61  C   -0.664384
    62  H    0.276637
    63  H    0.197980
    64  H    0.219428
    65  C   -0.288474
    66  H    0.135026
    67  H    0.143828
    68  C   -0.473736
    69  H    0.148123
    70  H    0.151946
    71  H    0.147227
    72  C   -0.333032
    73  H    0.186231
    74  H    0.161574
    75  C   -0.341269
    76  H    0.201221
    77  H    0.169055
 Sum of Mulliken charges =  -0.00000

 Dipole moment (field-independent basis, Debye):
    X=             -3.1562    Y=             -2.1550    Z=             -6.0603  Tot=              7.1647
 Quadrupole moment (field-independent basis, Debye-Ang):
   XX=           -207.1662   YY=           -221.6810   ZZ=           -219.9055
   XY=            -12.8770   XZ=             -4.6020   YZ=             10.3207

 Normal termination of Gaussian 16 at Thu Feb  7 12:24:05 2019.
