 Gaussian 16, Revision A.03,
 Gaussian 16:  ES64L-G16RevA.03 25-Dec-2016

 ------------------------------------------
 #p M062X/6-31G* em=gd3 force int=ultrafine
 ------------------------------------------

 -----
 Title
 -----
 Symbolic Z-matrix:
 Charge =  0 Multiplicity = 1

                         Standard orientation:
 ---------------------------------------------------------------------
 Center     Atomic      Atomic             Coordinates (Angstroms)
 Number     Number       Type             X           Y           Z
 ---------------------------------------------------------------------
      1          6           0       -4.868234    0.059570   -0.423348
      2          6           0       -4.902154   -1.223533   -1.259218
      3          6           0       -3.520123   -1.526389   -1.850533
      4          6           0       -2.514564   -1.648200   -0.710255
      5          6           0       -2.423289   -0.325709    0.103039
      6          6           0       -3.811823   -0.016270    0.683139
      7          1           0       -3.536656   -2.445814   -2.447005
      8          1           0       -5.216544   -2.065596   -0.628690
      9          1           0       -5.636172   -1.137467   -2.067160
     10          1           0       -4.630502    0.907063   -1.081630
     11          1           0       -5.857223    0.253771    0.005354
     12          1           0       -2.824680   -2.451890   -0.037189
     13          1           0       -2.213313    0.457121   -0.640848
     14          1           0       -4.077870   -0.789549    1.415056
     15          1           0       -3.746505    0.941195    1.214114
     16          1           0       -3.244586   -0.696846   -2.516376
     17          7           0       -1.147626   -2.007423   -1.153716
     18          6           0       -0.538298   -1.318101   -2.145393
     19          6           0       -0.390626   -2.762150   -0.322832
     20          6           0        0.815076   -1.342965   -2.324165
     21          1           0       -1.183596   -0.721701   -2.777454
     22          6           0        0.968420   -2.832839   -0.435717
     23          1           0       -0.924357   -3.264570    0.476736
     24          6           0        1.638634   -2.040687   -1.397986
     25          1           0        1.244549   -0.775298   -3.139090
     26          1           0        1.507218   -3.411126    0.301713
     27          7           0        2.974737   -1.941526   -1.417280
     28          6           0        3.775941   -2.442830   -0.293899
     29          1           0        3.723235   -3.534100   -0.236665
     30          1           0        3.386995   -2.016089    0.641332
     31          6           0        3.664898   -0.858017   -2.133182
     32          1           0        3.922211   -1.180401   -3.149643
     33          1           0        3.019937    0.023448   -2.178080
     34          7           0       -1.299694   -0.281206    1.016634
     35         16           0       -1.260237   -1.227735    2.280068
     36          8           0       -2.247880   -2.329221    2.244186
     37          8           0        0.139615   -1.673056    2.520558
     38          6           0       -1.151962    2.854175   -0.173685
     39          6           0       -0.413152    2.192565   -1.160075
     40          6           0       -0.929205    2.067546   -2.448240
     41          6           0       -2.195568    2.563175   -2.758955
     42          6           0       -2.943090    3.201056   -1.770994
     43          6           0       -2.418023    3.347370   -0.489180
     44          1           0        0.540925    1.738639   -0.897966
     45          1           0       -0.339576    1.572527   -3.216641
     46          1           0       -2.597969    2.455251   -3.761885
     47          1           0       -3.935061    3.582347   -1.995466
     48          1           0       -3.003357    3.840404    0.284143
     49          8           0        0.211239    1.937639    1.614689
     50          1           0       -0.278875    1.103302    1.355392
     51          6           0        2.436497    0.659030    1.236024
     52          8           0        2.131415    0.216128    0.141711
     53          8           0        2.191348    0.036004    2.376247
     54          1           0        1.500949   -0.673916    2.255799
     55          6           0        3.191779    1.952549    1.432168
     56          1           0        2.721063    2.473455    2.270920
     57          1           0        4.216136    1.704452    1.745549
     58          6           0       -0.594576    3.012353    1.226171
     59          1           0       -1.431888    3.173633    1.925853
     60          1           0        0.031930    3.914755    1.270413
     61          6           0       -1.646942   -0.211586    3.702473
     62          1           0       -0.951400    0.631259    3.692292
     63          1           0       -2.676793    0.136884    3.602274
     64          1           0       -1.525815   -0.808295    4.607552
     65          6           0        3.197652    2.819039    0.179723
     66          1           0        3.621312    2.251306   -0.657688
     67          1           0        2.158946    3.035698   -0.093808
     68          6           0        3.969732    4.119632    0.378553
     69          1           0        3.971088    4.724895   -0.532558
     70          1           0        3.524185    4.719572    1.178996
     71          1           0        5.011954    3.923241    0.653118
     72          6           0        5.180787   -1.931572   -0.601089
     73          1           0        5.786766   -1.839513    0.302448
     74          1           0        5.688991   -2.615020   -1.289112
     75          6           0        4.908109   -0.587764   -1.281264
     76          1           0        4.656283    0.163292   -0.526881
     77          1           0        5.748670   -0.222103   -1.874572
 ---------------------------------------------------------------------

 SCF Done:  E(RM062X) =  -1991.38961398     A.U. after   15 cycles

 The electronic state is 1-A.
 Alpha  occ. eigenvalues --  -90.10373 -19.63375 -19.60091 -19.59283 -19.58599
 Alpha  occ. eigenvalues --  -19.58359 -14.84809 -14.80515 -14.69407 -10.65455
 Alpha  occ. eigenvalues --  -10.63236 -10.62396 -10.61514 -10.59146 -10.59092
 Alpha  occ. eigenvalues --  -10.59036 -10.57821 -10.57424 -10.56835 -10.56651
 Alpha  occ. eigenvalues --  -10.56057 -10.55761 -10.55506 -10.54967 -10.54915
 Alpha  occ. eigenvalues --  -10.54860 -10.54581 -10.54543 -10.54492 -10.53757
 Alpha  occ. eigenvalues --  -10.53743 -10.53558 -10.53146 -10.53016 -10.52627
 Alpha  occ. eigenvalues --  -10.52559  -8.41338  -6.33576  -6.33483  -6.33403
 Alpha  occ. eigenvalues --   -1.19121  -1.17913  -1.12943  -1.10305  -1.09848
 Alpha  occ. eigenvalues --   -1.09152  -1.06178  -0.97545  -0.95254  -0.94811
 Alpha  occ. eigenvalues --   -0.92188  -0.89856  -0.88589  -0.88038  -0.85014
 Alpha  occ. eigenvalues --   -0.84955  -0.83648  -0.83504  -0.83301  -0.80199
 Alpha  occ. eigenvalues --   -0.79122  -0.76358  -0.75662  -0.74675  -0.70942
 Alpha  occ. eigenvalues --   -0.70191  -0.69070  -0.68726  -0.68363  -0.67999
 Alpha  occ. eigenvalues --   -0.65777  -0.64724  -0.63948  -0.63427  -0.61634
 Alpha  occ. eigenvalues --   -0.60272  -0.59398  -0.58969  -0.58360  -0.56171
 Alpha  occ. eigenvalues --   -0.55453  -0.55160  -0.55060  -0.54064  -0.53674
 Alpha  occ. eigenvalues --   -0.53438  -0.53078  -0.52378  -0.51972  -0.51725
 Alpha  occ. eigenvalues --   -0.51150  -0.50997  -0.50610  -0.50187  -0.49829
 Alpha  occ. eigenvalues --   -0.49607  -0.49469  -0.48839  -0.48356  -0.48000
 Alpha  occ. eigenvalues --   -0.47773  -0.47169  -0.46976  -0.46931  -0.45940
 Alpha  occ. eigenvalues --   -0.45841  -0.45246  -0.43956  -0.43649  -0.43420
 Alpha  occ. eigenvalues --   -0.42759  -0.42454  -0.42252  -0.41917  -0.41898
 Alpha  occ. eigenvalues --   -0.41157  -0.40842  -0.40575  -0.39919  -0.39523
 Alpha  occ. eigenvalues --   -0.39367  -0.39195  -0.38749  -0.38378  -0.37836
 Alpha  occ. eigenvalues --   -0.37337  -0.36241  -0.35893  -0.35367  -0.35110
 Alpha  occ. eigenvalues --   -0.34403  -0.33134  -0.32096  -0.31711  -0.31504
 Alpha  occ. eigenvalues --   -0.29844  -0.28888  -0.28319  -0.27496  -0.25420
 Alpha virt. eigenvalues --   -0.01022   0.00647   0.03315   0.03801   0.09087
 Alpha virt. eigenvalues --    0.10142   0.10926   0.11783   0.13001   0.13460
 Alpha virt. eigenvalues --    0.13847   0.14230   0.15145   0.15506   0.15750

 Mulliken charges:
               1
     1  C   -0.303946
     2  C   -0.304188
     3  C   -0.309739
     4  C   -0.073397
     5  C    0.062257
     6  C   -0.305229
     7  H    0.165889
     8  H    0.160910
     9  H    0.159151
    10  H    0.146464
    11  H    0.156650
    12  H    0.212990
    13  H    0.141499
    14  H    0.179618
    15  H    0.149131
    16  H    0.150934
    17  N   -0.424503
    18  C    0.100255
    19  C    0.084078
    20  C   -0.227907
    21  H    0.205266
    22  C   -0.227145
    23  H    0.264253
    24  C    0.428424
    25  H    0.188240
    26  H    0.206884
    27  N   -0.529113
    28  C   -0.157364
    29  H    0.178399
    30  H    0.199242
    31  C   -0.147200
    32  H    0.169536
    33  H    0.196135
    34  N   -0.755189
    35  S    1.249386
    36  O   -0.646892
    37  O   -0.670504
    38  C    0.048811
    39  C   -0.177187
    40  C   -0.187019
    41  C   -0.169995
    42  C   -0.162235
    43  C   -0.197699
    44  H    0.202596
    45  H    0.139394
    46  H    0.156405
    47  H    0.161800
    48  H    0.156559
    49  O   -0.711316
    50  H    0.480842
    51  C    0.645832
    52  O   -0.523364
    53  O   -0.644836
    54  H    0.485727
    55  C   -0.367298
    56  H    0.200256
    57  H    0.163970
    58  C   -0.068054
    59  H    0.128593
    60  H    0.159196
    61  C   -0.656175
    62  H    0.218747
    63  H    0.188142
    64  H    0.208021
    65  C   -0.287058
    66  H    0.143338
    67  H    0.167083
    68  C   -0.480395
    69  H    0.158385
    70  H    0.158587
    71  H    0.149963
    72  C   -0.337382
    73  H    0.184048
    74  H    0.170059
    75  C   -0.335662
    76  H    0.182738
    77  H    0.173309
 Sum of Mulliken charges =  -0.00000

 Dipole moment (field-independent basis, Debye):
    X=              1.5584    Y=             -0.4048    Z=             -6.5047  Tot=              6.7010
 Quadrupole moment (field-independent basis, Debye-Ang):
   XX=           -197.9836   YY=           -223.3574   ZZ=           -221.7609
   XY=            -12.0725   XZ=             -1.3107   YZ=             12.3407

 Normal termination of Gaussian 16 at Fri Feb  8 00:46:50 2019.
